  83
# Step 235, RM=C5H14NO[137] (21 atoms), C5H14NO[32] d=546.695pm (21 atoms), H2O4P[70] d=481.896pm (7 atoms), H2O4P[40] d=487.190pm (7 atoms), H2O[886] d=351.446pm (3 atoms), H2O[1304] d=464.210pm (3 atoms), H2O[947] d=465.719pm (3 atoms), H2O[988] d=515.031pm (3 atoms), H2O[257] d=531.515pm (3 atoms), H2O[112] d=538.774pm (3 atoms), H2O[1650] d=590.690pm (3 atoms), H2O[460] d=624.279pm (3 atoms), H2O[568] d=662.010pm (3 atoms)
  C  -0.98618  -0.17321   0.10586
  C  -0.71918  -1.73041  -0.04114
  C   0.58742   0.59469  -1.47754
  C  -0.52788   2.12259  -0.13464
  C   1.16002   0.76519   0.82216
  H  -1.86858  -0.03381  -0.51874
  H  -1.31588  -0.06901   1.13956
  H   1.11802  -2.18031   0.37256
  H  -1.60968  -2.27131   0.27886
  H  -0.52608  -2.05841  -1.06254
  H   1.41422   1.26789  -1.70434
  H  -0.16758   0.59649  -2.26374
  H   0.88742  -0.35811  -1.91364
  H   0.22102   2.83609  -0.47864
  H  -1.08088   2.40099   0.76246
  H  -1.35468   2.36969  -0.80054
  H   1.64622  -0.20881   0.87806
  H   1.91982   1.48419   0.51576
  H   0.77822   1.01339   1.81246
  N   0.04852   0.79289  -0.16414
  O   0.31832  -2.18111   0.87606
  C   2.90982  -2.46081   5.22566
  C   3.87082  -1.32751   4.69096
  C   1.45702  -4.36141   4.72976
  C   0.84492  -2.34071   3.92416
  C   2.80172  -3.37421   2.98976
  H   3.51642  -3.24361   5.68126
  H   2.33682  -1.89071   5.95696
  H   3.81372   0.21929   3.61676
  H   4.60222  -1.72321   3.98616
  H   4.29902  -0.83731   5.56526
  H   0.88782  -5.01551   4.06926
  H   2.28792  -5.02971   4.95576
  H   0.98352  -4.30711   5.70996
  H   0.15062  -3.02291   3.43366
  H   0.29882  -1.93001   4.77336
  H   1.00572  -1.51731   3.22836
  H   3.23782  -2.52071   2.47076
  H   3.40832  -4.27851   3.03906
  H   2.11662  -3.73581   2.22296
  N   2.06242  -3.07221   4.22146
  O   3.14002  -0.31051   4.01496
  H  -2.03398  -2.57947  -3.94954
  H  -3.93238  -0.10534  -5.44384
  O  -2.60958  -2.19474  -3.31364
  O  -4.10648  -0.70572  -4.74184
  O  -1.79438   0.01628  -4.32364
  O  -3.44528   0.03804  -2.35394
  P  -3.00128  -0.74357  -3.68484
  H  -2.52818  -1.74555   3.40536
  H  -1.17858   1.65178   3.45106
  O  -2.49388  -1.33254   4.24906
  O  -1.27868   0.80305   3.84256
  O  -3.59228   0.52173   2.92676
  O  -3.18618   0.79615   5.44506
  P  -2.64488   0.20436   4.11236
  H   2.43772  -2.65271  -1.69244
  H   3.17722  -2.14081  -0.67134
  O   2.29292  -2.49631  -0.75924
  H  -3.41958   1.97130   2.29276
  H  -3.81208   2.48413   0.99426
  O  -3.31188   2.76066   1.76216
  H  -4.22558   2.81574  -1.24674
  H  -3.83268   1.44804  -1.31194
  O  -4.11168   2.07808  -0.64754
  H  -2.13718   4.18956   1.66566
  H  -1.23048   4.96065   0.90576
  O  -1.31548   4.65882   1.81016
  H   3.28632  -3.86441  -3.29344
  H   2.39472  -3.00201  -3.99804
  O   2.92202  -2.98421  -3.19934
  H  -2.13458   4.73505  -1.41244
  H  -1.40528   5.88643  -1.22694
  O  -1.52918   5.06630  -0.74914
  H   5.54812   0.84017   1.99006
  H   5.77372   1.50295   3.18176
  O   5.04782   1.02054   2.78596
  H  -0.20538  -1.07627  -6.35934
  H  -0.56068  -0.09682  -5.53984
  O   0.04822  -0.15704  -6.27594
  H   0.79272  -3.31511  -5.46614
  H   1.88502  -3.53561  -6.27934
  O   1.73302  -3.44071  -5.33904
  83
# Step 280, RM=C5H14NO[168] (21 atoms), C5H14NO[290] d=590.282pm (21 atoms), H2O4P[157] d=484.080pm (7 atoms), H2O4P[199] d=489.643pm (7 atoms), H2O[731] d=446.968pm (3 atoms), H2O[1282] d=458.053pm (3 atoms), H2O[248] d=471.854pm (3 atoms), H2O[1438] d=480.229pm (3 atoms), H2O[1333] d=481.812pm (3 atoms), H2O[62] d=490.463pm (3 atoms), H2O[1485] d=492.774pm (3 atoms), H2O[667] d=508.678pm (3 atoms), H2O[728] d=517.873pm (3 atoms)
  C   0.43869   0.74199  -0.59369
  C   1.68189  -0.20561  -0.70259
  C  -1.22551  -1.12901  -0.37359
  C  -1.96271   1.08149  -0.37009
  C  -0.65511   0.24399   1.48001
  H   0.25269   0.96959  -1.64329
  H   0.72769   1.62929  -0.03039
  H   2.78799  -1.48781   0.10431
  H   2.56899   0.21429  -1.17679
  H   1.35249  -0.98501  -1.38969
  H  -1.37291  -1.17641  -1.45259
  H  -2.10881  -1.37011   0.21791
  H  -0.51931  -1.89431  -0.05159
  H  -1.89261   2.13729  -0.10809
  H  -2.10191   1.06289  -1.45099
  H  -2.86531   0.69869   0.10631
  H   0.08109  -0.51381   1.74781
  H  -1.59341  -0.02791   1.96361
  H  -0.29981   1.16689   1.93841
  N  -0.79251   0.21389   0.03421
  O   2.30099  -0.76411   0.46761
  C   0.45349  -2.71071   4.82389
  C  -0.59651  -3.78951   5.23905
  C   2.45349  -1.93511   3.78770
  C   2.56599  -3.93811   5.07239
  C   1.49459  -3.88021   2.97188
  H  -0.11561  -2.06951   4.15075
  H   0.62779  -2.15111   5.74287
  H  -0.54591  -5.38691   6.37728
  H  -1.46681  -3.38311   5.75439
  H  -0.93561  -4.37511   4.38449
  H   2.76229  -1.36101   4.66131
  H   3.36399  -2.22591   3.26382
  H   1.82089  -1.33881   3.13017
  H   2.15229  -4.94481   5.13060
  H   2.64659  -3.52821   6.07916
  H   3.54529  -4.17241   4.65513
  H   1.00949  -4.83951   3.15254
  H   0.75539  -3.44301   2.30061
  H   2.39209  -4.03791   2.37378
  N   1.73009  -3.14271   4.21936
  O  -0.08151  -4.56781   6.29727
  H  -0.36451   3.94299   0.85182
  H   0.90869   5.45479   4.11342
  O  -0.68391   3.91359   1.73539
  O   0.87099   5.30729   3.18583
  O   1.75659   3.17509   2.33245
  O  -0.04541   3.14719   4.12548
  P   0.44659   3.87099   2.83167
  H   1.40159   0.36329  -6.51429
  H  -0.59471   1.50779  -4.35469
  O   0.93359  -0.41981  -6.28779
  O  -0.84111   0.71759  -4.80029
  O  -0.26621  -1.82521  -4.45219
  O   1.35329  -0.15211  -3.84409
  P   0.23899  -0.39401  -4.89329
  H  -3.02681  -3.01941   1.52359
  H  -1.86211  -3.77421   1.60478
  O  -2.32731  -3.15151   2.16342
  H   2.60439   3.41029   0.84701
  H   2.00659   3.83579  -0.40129
  O   2.86979   3.61949  -0.04859
  H  -4.35531  -0.72551   1.19110
  H  -4.97871  -0.08031   2.26378
  O  -4.15271  -0.53821   2.10767
  H   4.25669  -2.85971   0.51181
  H   4.01189  -3.52911  -0.73169
  O   3.51229  -3.19931   0.01521
  H   2.66599  -2.64621  -3.38489
  H   2.66199  -1.27131  -3.27529
  O   3.23849  -1.98351  -2.99859
  H   1.92739  -5.12091  -0.65599
  H   2.06259  -3.96021   0.02921
  O   1.43819  -4.68571   0.04221
  H  -3.32591  -1.80541  -3.41559
  H  -1.90781  -2.10461  -3.73289
  O  -2.67501  -2.50061  -3.31969
  H  -4.76451  -3.57101   0.53451
  H  -4.47891  -2.33431  -0.11049
  O  -3.99511  -3.05621   0.29101
  H  -2.49331  -3.59471  -2.15509
  H  -3.01911  -3.82561  -0.85979
  O  -2.52461  -4.31061  -1.52049
  83
# Step 505, RM=C5H14NO[21] (21 atoms), C5H14NO[20] d=503.087pm (21 atoms), H2O4P[323] d=495.215pm (7 atoms), H2O4P[246] d=559.491pm (7 atoms), H2O[1524] d=438.801pm (3 atoms), H2O[1262] d=444.137pm (3 atoms), H2O[1243] d=459.758pm (3 atoms), H2O[1624] d=468.774pm (3 atoms), H2O[655] d=471.101pm (3 atoms), H2O[1562] d=489.373pm (3 atoms), H2O[1506] d=494.000pm (3 atoms), H2O[1569] d=497.728pm (3 atoms), H2O[302] d=531.507pm (3 atoms)
  C   0.96304   0.34732   0.38550
  C   0.79164   1.57212  -0.52000
  C   0.22644  -1.55718   1.51030
  C  -1.43076   0.02972   0.95190
  C  -0.58786  -1.27838  -0.78270
  H   1.79674  -0.14108  -0.11910
  H   1.22444   0.73342   1.37070
  H   0.29434   2.13902  -2.24400
  H   1.72524   2.13082  -0.58680
  H   0.07864   2.30362  -0.13940
  H  -0.64716  -2.13918   1.80380
  H   0.63524  -1.09468   2.40870
  H   0.94194  -2.22518   1.03090
  H  -1.82836   0.74402   0.23100
  H  -1.30076   0.44062   1.95310
  H  -2.28556  -0.64578   0.98410
  H  -1.42646  -1.97448  -0.77400
  H   0.25504  -1.76988  -1.26860
  H  -1.06776  -0.58138  -1.46980
  N  -0.17386  -0.58718   0.49050
  O   0.28144   1.31052  -1.78960
  C   2.04204  -0.82628  -3.86730
  C   1.32944   0.21412  -4.72680
  C   3.78454  -2.09578  -2.89000
  C   4.07854  -0.99628  -5.06750
  C   4.09004   0.34242  -3.04780
  H   1.62444  -1.79618  -4.13710
  H   1.55924  -0.63818  -2.90830
  H   1.42704   1.76822  -5.74300
  H   1.20444  -0.21178  -5.72230
  H   0.29684   0.29612  -4.38730
  H   3.63924  -2.98798  -3.49900
  H   3.19284  -2.14198  -1.97570
  H   4.81824  -2.20278  -2.56120
  H   3.59764  -1.80408  -5.61900
  H   3.87174  -0.07248  -5.60790
  H   5.15574  -1.15868  -5.10340
  H   5.12944   0.14082  -2.78900
  H   4.14174   1.20182  -3.71630
  H   3.57424   0.60402  -2.12390
  N   3.51284  -0.85438  -3.70360
  O   1.89174   1.50682  -4.96280
  H   6.33934   0.18622   2.24680
  H   5.87954  -1.11438  -0.17710
  O   6.22964   0.65042   1.43670
  O   4.97774  -0.87478  -0.06320
  O   4.16024   1.52702   0.18890
  O   3.94414  -0.21198   1.99040
  P   4.85634   0.32202   0.88790
  H  -2.04676  -1.02088  -4.48750
  H  -3.88576  -2.30988  -2.97800
  O  -1.50516  -1.74858  -4.73390
  O  -3.02486  -2.67118  -2.86850
  O  -3.15636  -3.51208  -5.35610
  O  -1.06716  -4.12038  -3.89100
  P  -2.18786  -3.01088  -4.16650
  H   1.13014   3.65522   2.21164
  H  -0.09156   4.32012   1.79376
  O   0.19454   3.64932   2.41370
  H   0.80634  -4.72518   0.24710
  H  -0.51516  -4.33258  -0.20610
  O   0.38044  -4.38538  -0.53990
  H  -2.90196  -3.78348   0.68490
  H  -2.12026  -4.11888   1.71520
  O  -1.98556  -4.04658   0.77030
  H   0.17184   4.22262  -3.52670
  H  -0.33806   4.33742  -2.18740
  O  -0.17626   3.65512  -2.83900
  H   3.68324  -1.92538   1.67150
  H   3.61454  -2.96638   2.65960
  O   3.32084  -2.80668   1.76270
  H   3.34994   2.88552   1.22600
  H   2.73634   4.06732   0.80610
  O   2.89744   3.62172   1.63780
  H  -2.30796  -1.26088   3.91450
  H  -2.19556  -0.35568   4.92010
  O  -1.62606  -1.02708   4.54430
  H  -3.93146  -2.10898   2.42900
  H  -4.23016  -0.82228   2.80230
  O  -3.60446  -1.49048   3.08220
  H   1.04394  -4.29948  -2.00680
  H   0.42404  -4.22178  -3.26720
  O   1.31564  -4.28278  -2.92440
  83
# Step 599, RM=C5H14NO[25] (21 atoms), C5H14NO[135] d=613.542pm (21 atoms), H2O4P[294] d=491.142pm (7 atoms), H2O4P[341] d=590.325pm (7 atoms), H2O[97] d=445.587pm (3 atoms), H2O[289] d=449.685pm (3 atoms), H2O[952] d=471.263pm (3 atoms), H2O[209] d=472.417pm (3 atoms), H2O[83] d=488.604pm (3 atoms), H2O[281] d=492.308pm (3 atoms), H2O[1550] d=508.294pm (3 atoms), H2O[91] d=522.027pm (3 atoms), H2O[361] d=539.217pm (3 atoms)
  C  -0.59490   0.65245  -0.46731
  C   0.43330   1.76675  -0.16191
  C  -1.69400  -1.38085  -0.21571
  C  -0.35060  -0.50425   1.61379
  C   0.66070  -1.44505  -0.49121
  H  -1.53460   1.02785  -0.06211
  H  -0.76080   0.62335  -1.54421
  H   2.32500   2.22595  -0.36321
  H   0.16500   2.56305  -0.85611
  H   0.34350   2.14895   0.85489
  H  -1.87020  -1.39865  -1.29121
  H  -1.66860  -2.42475   0.09699
  H  -2.60550  -1.08735   0.30499
  H   0.60060  -0.04395   1.88109
  H  -0.29990  -1.51735   2.01279
  H  -1.21180  -0.01605   2.06999
  H   0.62940  -2.51205  -0.27101
  H   0.58840  -1.49825  -1.57751
  H   1.59130  -1.09075  -0.04771
  N  -0.45800  -0.65415   0.15029
  O   1.79480   1.44555  -0.41611
  C   2.20660   1.10615  -5.99571
  C   1.28190   2.12735  -6.59461
  C   2.01500   1.99985  -3.73571
  C   3.59770   0.20565  -4.22501
  C   4.02220   2.42045  -5.03941
  H   1.52840   0.27355  -5.80881
  H   2.89160   0.80635  -6.78881
  H   1.16190   3.89935  -7.21001
  H   0.26980   2.05085  -6.19741
  H   1.14900   2.10955  -7.67631
  H   2.54540   2.20935  -2.80671
  H   1.30810   1.18405  -3.58461
  H   1.59430   2.95055  -4.06311
  H   4.29670  -0.35575  -4.84501
  H   2.78710  -0.45995  -3.92811
  H   4.22100   0.36105  -3.34451
  H   4.61220   2.47555  -4.12461
  H   3.72530   3.44305  -5.27221
  H   4.69750   1.97045  -5.76721
  N   2.92140   1.44765  -4.75731
  O   1.62880   3.46745  -6.51111
  H  -2.66390   0.47635  -6.45001
  H  -1.04150  -1.31535  -4.35541
  O  -3.05870   0.48305  -5.59701
  O  -0.88180  -0.46905  -4.73211
  O  -2.91730  -0.14125  -3.21711
  O  -1.59410   1.85525  -4.07941
  P  -2.07380   0.44575  -4.39161
  H  -0.89070   2.55365   3.90879
  H  -3.51660   1.98335   4.60159
  O  -0.62810   1.83735   4.45789
  O  -3.02270   2.22975   5.36249
  O  -2.07200  -0.06395   5.22509
  O  -1.12730   1.54345   6.94689
  P  -1.70760   1.39395   5.48659
  H  -2.02220   2.87825  -2.75601
  H  -2.98390   2.62915  -1.69641
  O  -2.33360   3.28515  -1.94751
  H   2.15880  -3.81425   2.74679
  H   2.62810  -3.30775   1.51709
  O   2.35940  -2.95885   2.36699
  H   3.48380  -2.89895  -1.33701
  H   4.08980  -2.69065  -2.63571
  O   3.26230  -2.51775  -2.18661
  H  -3.65710   0.77315  -1.96331
  H  -5.07710   1.10095  -1.77911
  O  -4.21020   1.43945  -1.55541
  H   2.40160   4.09355   1.20949
  H   2.20110   4.42185   2.60079
  O   1.68390   4.15905   1.83949
  H  -1.47290  -3.44395  -4.18211
  H  -1.27430  -4.04235  -2.96411
  O  -0.86590  -3.32675  -3.45131
  H  -2.92170   5.03105  -0.09781
  H  -2.10330   3.94495  -0.33701
  O  -2.29890   4.51095   0.40979
  H  -1.58240  -4.80455   1.03209
  H  -0.44410  -5.47165   0.79169
  O  -1.12390  -5.08485   0.23999
  H  -1.27080   4.73985   1.86289
  H   0.00810   4.35215   2.45109
  O  -0.86870   4.62265   2.72359
  83
# Step 680, RM=C5H14NO[92] (21 atoms), C5H14NO[344] d=605.969pm (21 atoms), H2O4P[198] d=501.097pm (7 atoms), H2O4P[17] d=510.079pm (7 atoms), H2O[500] d=406.853pm (3 atoms), H2O[636] d=447.360pm (3 atoms), H2O[1046] d=459.661pm (3 atoms), H2O[803] d=484.795pm (3 atoms), H2O[1588] d=493.293pm (3 atoms), H2O[711] d=496.057pm (3 atoms), H2O[200] d=499.025pm (3 atoms), H2O[962] d=519.838pm (3 atoms), H2O[1622] d=535.128pm (3 atoms)
  C  -0.83366  -0.06165  -0.61900
  C   0.01533  -0.49955  -1.78550
  C   0.76456   1.36705   0.49930
  C   0.33600  -0.77815   1.34670
  C  -1.28869   0.94955   1.57570
  H  -1.43588   0.74385  -1.03920
  H  -1.48929  -0.91875  -0.46520
  H   1.40893  -1.57395  -2.30940
  H  -0.48414  -1.12495  -2.52540
  H   0.31429   0.31685  -2.44300
  H   0.45440   2.33085   0.09560
  H   1.47157   1.00285  -0.24600
  H   1.39194   1.48555   1.38280
  H   0.54078  -0.58135   2.39910
  H   1.25717  -1.09425   0.85730
  H  -0.29375  -1.65825   1.21650
  H  -0.91367   1.28575   2.54230
  H  -2.17556   0.32635   1.69070
  H  -1.57125   1.90815   1.14060
  N  -0.27826   0.35805   0.67540
  O   1.09519  -1.20135  -1.49960
  C  -0.64864  -6.28145  -1.78240
  C  -1.17851  -5.42305  -2.95520
  C   1.70539  -6.31515  -2.49860
  C   1.03337  -5.06245  -0.52370
  C   1.01238  -7.37555  -0.42160
  H  -0.86864  -7.33075  -1.97890
  H  -1.35947  -6.02125  -0.99810
  H  -1.84311  -3.71855  -2.42450
  H  -2.24479  -5.60685  -3.08710
  H  -0.77473  -5.78905  -3.89920
  H   2.73559  -6.47225  -2.17910
  H   1.47843  -7.08575  -3.23530
  H   1.65140  -5.39765  -3.08470
  H   2.05801  -4.91775  -0.18130
  H   0.41422  -5.17265   0.36660
  H   0.89283  -4.04205  -0.88010
  H   0.35763  -7.22545   0.43680
  H   0.90791  -8.34655  -0.90560
  H   2.02758  -7.26525  -0.04050
  N   0.76307  -6.24535  -1.35410
  O  -1.06333  -4.04715  -2.84520
  H  -3.39623  -0.03395  -3.81500
  H  -4.12751   0.04835  -1.09900
  O  -3.22164  -0.93575  -3.61550
  O  -4.62764  -0.64795  -1.48450
  O  -3.11394  -2.62275  -1.71010
  O  -5.24658  -2.38615  -3.17830
  P  -4.02241  -1.62685  -2.49730
  H  -3.97688   3.44035   1.16930
  H  -1.97039   4.64543   0.52790
  O  -3.95516   2.87877   0.41580
  O  -1.99330   4.36422  -0.36880
  O  -3.22283   2.85607  -1.95370
  O  -4.41711   4.87954  -1.09580
  P  -3.37416   3.75306  -0.71420
  H  -1.65820   2.76685  -2.58940
  H  -0.35821   3.52974  -2.94170
  O  -0.77202   2.66662  -2.93710
  H  -2.66544  -3.17495  -0.05880
  H  -3.40293  -3.27795   1.01750
  O  -2.53663  -3.61115   0.78350
  H   1.24184   3.36294   2.59810
  H   1.04067   3.31228   3.99680
  O   0.51362   3.22132   3.20300
  H  -0.20744  -2.74981   3.72600
  H  -1.32374  -2.04985   4.04320
  O  -0.43134  -2.09426   4.38660
  H  -0.99483  -4.93145   2.90340
  H  -1.23038  -3.92275   1.91950
  O  -0.57865  -4.12865   2.58970
  H  -0.35719   1.41545  -5.11570
  H   0.25522   1.97335  -4.04540
  O   0.52669   1.38465  -4.74960
  H   3.12424  -2.34865  -4.34140
  H   3.33814  -2.39505  -2.88590
  O   2.88679  -1.87025  -3.54700
  H  -1.09162   3.78226   2.93200
  H  -2.30441   3.40800   3.23290
  O  -1.95515   4.06690   2.63280
  H  -0.19979   0.73154   5.25690
  H   0.21645  -0.66797   5.21340
  O   0.59475   0.20317   5.33280
  83
# Step 743, RM=C5H14NO[220] (21 atoms), C5H14NO[35] d=578.743pm (21 atoms), H2O4P[250] d=535.588pm (7 atoms), H2O4P[107] d=555.982pm (7 atoms), H2O[876] d=370.586pm (3 atoms), H2O[980] d=380.694pm (3 atoms), H2O[1575] d=423.793pm (3 atoms), H2O[862] d=426.359pm (3 atoms), H2O[923] d=455.915pm (3 atoms), H2O[654] d=479.569pm (3 atoms), H2O[1018] d=534.983pm (3 atoms), H2O[1414] d=547.902pm (3 atoms), H2O[1287] d=570.218pm (3 atoms)
  C  -0.33385   0.04148   0.98203
  C   0.53135  -1.19662   1.26833
  C  -0.53415  -0.02112  -1.53877
  C   1.20475   1.14348  -0.48327
  C  -1.07305   1.90608  -0.42317
  H  -0.26185   0.72668   1.82673
  H  -1.34245  -0.32362   1.17553
  H   1.10975  -2.84092   0.56013
  H   1.57205  -0.94942   1.05903
  H   0.62165  -1.47152   2.31923
  H   0.01805  -0.92922  -1.78077
  H  -1.51475  -0.49672  -1.55387
  H  -0.45485   0.60418  -2.42807
  H   1.90305   0.39808  -0.86397
  H   1.59365   1.54518   0.45233
  H   1.29055   2.07128  -1.04887
  H  -1.02415   2.23288  -1.46187
  H  -2.09425   1.66598  -0.12727
  H  -0.70895   2.63318   0.30263
  N  -0.21025   0.74578  -0.32907
  O   0.29335  -2.36572   0.53323
  C  -6.06825   1.74308   1.00783
  C  -5.42425   0.93368  -0.11717
  C  -6.37405   3.81538   2.10993
  C  -4.76385   3.72428   0.34503
  C  -4.38885   2.65548   2.56293
  H  -6.28425   1.08308   1.84803
  H  -7.02905   2.13728   0.67693
  H  -4.31535  -0.32442   0.78833
  H  -5.42745   1.54718  -1.01817
  H  -6.07415   0.06118  -0.18367
  H  -7.03685   4.22098   1.34563
  H  -6.94475   3.27518   2.86533
  H  -5.91685   4.68448   2.58283
  H  -4.37425   4.70888   0.60343
  H  -5.57725   3.96658  -0.33897
  H  -3.88485   3.27968  -0.12167
  H  -4.75235   2.26078   3.51173
  H  -3.70895   1.89138   2.18593
  H  -3.74155   3.51578   2.73353
  N  -5.39195   2.95338   1.46923
  O  -4.14645   0.39178   0.19543
  H  -2.32905  -2.68552   3.04453
  H  -2.23235   0.94358   4.56243
  O  -1.97545  -2.41112   3.87113
  O  -2.05715   0.26298   3.93823
  O  -3.88485  -1.14522   4.97303
  O  -1.64695  -1.13852   6.04913
  P  -2.35335  -1.09972   4.65373
  H   0.35195  -4.11972  -5.75117
  H  -1.56175  -3.37552  -3.39387
  O  -0.10595  -4.57942  -5.07107
  O  -0.78035  -3.44762  -2.87647
  O   0.69715  -5.48262  -2.72487
  O   1.65735  -3.29292  -3.68457
  P   0.36235  -4.22542  -3.64537
  H   1.34755   1.42988   3.78093
  H   1.52795   2.17888   2.62873
  O   1.78665   1.31108   2.93883
  H   3.04895  -2.56702  -0.55787
  H   4.05005  -1.61512  -0.10087
  O   3.31055  -1.65842  -0.70707
  H   2.17195  -1.85712  -3.40287
  H   2.74505  -1.41202  -2.26407
  O   2.65845  -1.07112  -3.15437
  H   4.06135   0.06628   1.42603
  H   3.09825   1.04228   2.02213
  O   3.90045   1.00688   1.50113
  H   0.34475   4.60548   1.92803
  H   0.28225   3.69968   2.86553
  O   0.91435   3.87468   2.16833
  H   2.78475  -4.60062   0.28043
  H   3.44975  -3.90672   1.39143
  O   2.73375  -3.77912   0.76893
  H  -1.47645   3.22368   4.62013
  H  -0.17545   2.89118   4.81003
  O  -0.67405   3.30338   4.10443
  H   4.88035  -2.27122   1.75963
  H   5.83385  -1.32202   1.83573
  O   5.06365  -1.46062   1.28453
  H   2.32835   4.18378   1.62733
  H   2.90065   5.09428   0.85343
  O   3.22865   4.49048   1.51983
  83
# Step 796, RM=C5H14NO[79] (21 atoms), C5H14NO[280] d=503.880pm (21 atoms), H2O4P[74] d=480.778pm (7 atoms), H2O4P[263] d=569.371pm (7 atoms), H2O[805] d=429.528pm (3 atoms), H2O[146] d=469.976pm (3 atoms), H2O[982] d=493.952pm (3 atoms), H2O[1492] d=498.485pm (3 atoms), H2O[1659] d=504.582pm (3 atoms), H2O[305] d=512.338pm (3 atoms), H2O[1224] d=523.539pm (3 atoms), H2O[630] d=523.996pm (3 atoms), H2O[707] d=554.858pm (3 atoms)
  C  -0.97487  -0.25253   0.27559
  C  -1.54417   0.87517  -0.56601
  C   0.94713  -0.69743  -1.15711
  C   1.33133   0.27867   0.93599
  C   0.60293  -1.84623   0.95449
  H  -1.66187  -1.04503  -0.02141
  H  -1.26467  -0.00943   1.29789
  H  -1.27397   2.65797  -1.02111
  H  -2.54557   1.13067  -0.21951
  H  -1.68987   0.50597  -1.58121
  H   0.78693   0.20317  -1.74991
  H   0.33063  -1.46223  -1.62951
  H   1.95663  -1.06493  -1.34151
  H   1.43733   1.21327   0.38509
  H   2.34373  -0.12523   0.93639
  H   1.17263   0.67257   1.93989
  H   1.60673  -2.26833   1.00289
  H  -0.02087  -2.60393   0.48039
  H   0.21333  -1.71493   1.96399
  N   0.47783  -0.61363   0.20039
  O  -0.77797   2.01647  -0.53581
  C   3.06423   4.00877  -2.92681
  C   3.76133   3.03137  -2.05111
  C   1.08243   4.98877  -3.88161
  C   1.00203   2.69857  -3.39581
  C   1.00553   4.33397  -1.64161
  H   3.39353   3.74587  -3.93211
  H   3.34283   5.03547  -2.68941
  H   4.46653   2.86597  -0.34561
  H   3.05553   2.20887  -1.93491
  H   4.68683   2.65847  -2.48961
  H   1.30393   4.86057  -4.94111
  H   1.51283   5.95827  -3.63111
  H  -0.00097   5.09507  -3.82661
  H  -0.06297   2.79227  -3.60801
  H   1.09133   2.00157  -2.56261
  H   1.43553   2.34507  -4.33131
  H  -0.06447   4.52907  -1.71321
  H   1.49693   5.24277  -1.29421
  H   1.18973   3.67777  -0.79101
  N   1.55523   3.98017  -2.96591
  O   3.90393   3.52207  -0.72781
  H  -2.40607  -2.69483  -3.41951
  H   0.73843  -4.72173  -2.58701
  O  -1.81187  -2.60953  -2.69611
  O   0.30773  -3.96943  -2.95071
  O  -1.99197  -5.02573  -3.21741
  O  -1.13617  -4.28113  -0.89241
  P  -1.14697  -3.99623  -2.43831
  H   0.52183  -3.32593   4.56659
  H   0.39393  -0.22543   5.24789
  O   1.25243  -2.87023   4.18959
  O   1.01663  -0.51273   4.60499
  O   3.35153  -1.70983   4.98739
  O   1.44513  -2.19293   6.65139
  P   1.75313  -1.79193   5.13159
  H   4.46793  -0.72993  -0.37991
  H   4.62513   0.62867  -0.40801
  O   4.16113  -0.01733  -0.94051
  H  -0.93077   2.07687   4.49699
  H  -0.34627   2.65457   3.46279
  O  -1.25757   2.56647   3.74219
  H  -5.63187   0.38377   1.42299
  H  -4.43777   1.18807   1.54619
  O  -4.76597   0.45777   1.02159
  H  -3.75677   2.77437  -2.05101
  H  -3.41127   4.05207  -1.98361
  O  -2.95567   3.25607  -2.25741
  H   3.79613  -0.51343  -3.42421
  H   4.04173  -1.12223  -2.24091
  O   3.74883  -1.41423  -3.10411
  H  -4.51587  -1.21283   0.62699
  H  -5.40987  -2.07903   1.03409
  O  -4.59467  -2.16273   0.53939
  H  -4.06807   3.21447   2.76289
  H  -2.87507   2.52787   2.89239
  O  -3.79567   2.29687   2.76849
  H  -5.63437   1.89527  -1.37511
  H  -4.89937   1.04427  -0.49151
  O  -4.82147   1.38997  -1.38071
  H  -2.87957   1.77547  -4.80611
  H  -2.50627   2.71427  -3.73901
  O  -2.15547   2.34687  -4.55031
  83
# Step 877, RM=C5H14NO[305] (21 atoms), C5H14NO[171] d=632.110pm (21 atoms), H2O4P[314] d=501.374pm (7 atoms), H2O4P[107] d=543.054pm (7 atoms), H2O[1345] d=354.064pm (3 atoms), H2O[853] d=399.005pm (3 atoms), H2O[654] d=409.010pm (3 atoms), H2O[980] d=422.462pm (3 atoms), H2O[523] d=424.531pm (3 atoms), H2O[818] d=458.656pm (3 atoms), H2O[1362] d=477.721pm (3 atoms), H2O[143] d=492.548pm (3 atoms), H2O[572] d=505.548pm (3 atoms)
  C   0.12792  -0.78860   0.49573
  C   0.92232  -0.09020   1.65913
  C  -1.01388  -1.19870  -1.42687
  C  -0.86258   1.09720  -0.68777
  C   0.95372   0.08390  -1.63937
  H   0.65902  -1.72490   0.32423
  H  -0.81348  -1.07320   0.96563
  H   0.67142   1.36590   2.69613
  H   1.83132   0.36740   1.26873
  H   1.13392  -0.80500   2.45443
  H  -1.26928  -0.84450  -2.42567
  H  -1.93048  -1.36250  -0.86027
  H  -0.45938  -2.13500  -1.48877
  H  -1.09808   1.63790  -1.60447
  H  -1.84868   0.96900  -0.24127
  H  -0.47608   1.84460   0.00513
  H   1.62762   0.80270  -1.17327
  H   0.74092   0.32500  -2.68077
  H   1.63662  -0.76300  -1.70747
  N  -0.20978  -0.13420  -0.77777
  O   0.06242   0.87830   2.16283
  C   0.00892   5.77200  -1.18107
  C  -0.80348   6.99590  -0.70887
  C   2.28952   6.57640  -1.51997
  C   1.45692   5.86590   0.68303
  C   1.82712   4.26130  -1.13317
  H  -0.02628   5.68950  -2.26737
  H  -0.46108   4.83850  -0.87157
  H  -0.69098   8.92340  -0.86107
  H  -1.04668   6.84530   0.34293
  H  -1.71948   6.93820  -1.29687
  H   2.07392   7.63280  -1.35947
  H   3.30662   6.36780  -1.18837
  H   2.21492   6.40940  -2.59447
  H   1.37552   6.93200   0.89513
  H   2.40252   5.52700   1.10633
  H   0.69012   5.24420   1.14503
  H   2.85932   4.09940  -0.82237
  H   1.62672   3.87660  -2.13317
  H   1.29852   3.49820  -0.56187
  N   1.41882   5.62020  -0.76717
  O  -0.14008   8.17510  -1.03297
  H  -1.91648  -4.70270  -0.95447
  H  -3.19858  -4.73360   2.76693
  O  -2.62078  -4.99160  -0.40307
  O  -2.93048  -5.21960   2.00833
  O  -3.38698  -3.01510   0.90383
  O  -0.98668  -3.74630   1.28993
  P  -2.47258  -4.24470   0.94013
  H  -6.22228   1.96460  -2.70627
  H  -5.82728   1.75310   0.70513
  O  -5.98748   1.07320  -2.52207
  O  -6.15788   1.11800   0.09603
  O  -4.51248  -0.44740  -1.01687
  O  -4.09838   2.01160  -1.16927
  P  -5.23168   0.93010  -1.16307
  H  -3.21268  -1.38910   1.23833
  H  -3.59658  -0.28030   0.54333
  O  -3.21598  -0.44670   1.40563
  H   3.42858  -2.66580   1.37073
  H   2.91658  -1.92730   2.41703
  O   3.19736  -1.74900   1.51953
  H  -2.66358   1.04370   2.11043
  H  -1.97448   1.74770   3.13993
  O  -2.67228   1.91500   2.50653
  H  -2.17818   2.89680   1.48763
  H  -1.59208   4.14090   1.82153
  O  -1.82738   3.65970   1.02813
  H   3.93316  -1.11740  -0.93257
  H   3.99991  -0.71080   0.41163
  O   4.23369  -0.35100  -0.44407
  H  -0.25768  -3.17660   2.68653
  H  -0.73668  -3.28560   3.91083
  O   0.06262  -2.90520   3.54673
  H   1.36912  -4.40380  -0.77917
  H   0.58472  -4.28400   0.48393
  O   1.42572  -4.60220   0.15553
  H   3.23782  -3.15320  -1.88897
  H   3.94802  -3.13970  -0.63737
  O   3.90762  -2.63110  -1.44727
  H  -0.93038   0.95060   4.81213
  H  -0.05418   1.99280   4.59323
  O  -1.00488   1.88170   4.60293
  83
# Step 901, RM=C5H14NO[91] (21 atoms), C5H14NO[229] d=612.342pm (21 atoms), H2O4P[133] d=514.744pm (7 atoms), H2O4P[20] d=514.794pm (7 atoms), H2O[988] d=425.550pm (3 atoms), H2O[920] d=428.767pm (3 atoms), H2O[1535] d=452.385pm (3 atoms), H2O[1554] d=467.180pm (3 atoms), H2O[112] d=474.910pm (3 atoms), H2O[278] d=495.570pm (3 atoms), H2O[757] d=505.918pm (3 atoms), H2O[1411] d=515.610pm (3 atoms), H2O[765] d=519.773pm (3 atoms)
  C   0.39979  -0.61361  -0.70514
  C   1.72809  -0.17932  -0.10364
  C  -0.87211   0.11131   1.27186
  C  -0.63991   1.64513  -0.64544
  C  -1.97341  -0.27674  -0.88284
  H   0.31069  -1.63444  -0.33354
  H   0.60589  -0.72611  -1.76954
  H   2.41689  -0.35060   1.69246
  H   1.74699   0.89843   0.05816
  H   2.60579  -0.32598  -0.73314
  H  -0.92241  -0.95635   1.48566
  H  -1.83291   0.50803   1.59996
  H  -0.10271   0.65273   1.82236
  H   0.13739   2.25963  -0.19124
  H  -1.58701   2.10723  -0.36704
  H  -0.44431   2.02683  -1.64754
  H  -2.08141  -1.35369  -0.75394
  H  -1.99681  -0.13713  -1.96364
  H  -2.86281   0.26452  -0.56014
  N  -0.75051   0.20773  -0.22304
  O   1.92859  -0.90110   1.09956
  C   3.38149  -3.45978  -1.78254
  C   3.42029  -4.07012  -3.24584
  C   5.02849  -4.92970  -0.63834
  C   5.91799  -2.96685  -1.53214
  C   4.54509  -2.84698   0.25666
  H   2.55659  -3.91526  -1.23454
  H   3.05459  -2.44696  -2.01794
  H   4.31429  -5.46786  -4.24484
  H   3.98999  -3.50226  -3.98144
  H   2.43589  -3.95321  -3.69894
  H   6.00369  -5.05301  -0.16734
  H   4.28709  -5.38957   0.01516
  H   5.19919  -5.60760  -1.47464
  H   6.79079  -3.01204  -0.88074
  H   6.19349  -3.34099  -2.51814
  H   5.61949  -1.94425  -1.76294
  H   4.39199  -1.77326   0.14816
  H   3.72759  -3.16826   0.90206
  H   5.41279  -2.89638   0.91466
  N   4.68019  -3.57904  -0.99304
  O   3.86409  -5.37185  -3.41954
  H   2.91049   3.37423   1.82256
  H   5.38589   4.71573  -0.41434
  O   2.51719   3.70753   1.03656
  O   4.84639   4.41643   0.29486
  O   2.85089   4.49243  -1.39704
  O   3.85059   2.29503  -0.59514
  P   3.51509   3.75833  -0.18164
  H   0.98539  -0.52741  -7.01514
  H   1.00199   1.87193  -4.21054
  O   0.99579   0.28068  -6.53504
  O   0.99559   0.95923  -3.98604
  O  -1.18901   0.17333  -5.18844
  O   0.72269  -1.40547  -4.76144
  P   0.38809   0.05636  -5.13194
  H  -0.94111  -4.62107  -0.56844
  H  -0.38041  -3.84951  -1.65524
  O  -0.12951  -4.16282  -0.78634
  H   1.71909   1.22363   3.62386
  H   1.63679   0.00821   4.27826
  O   2.22589   0.41183   3.64086
  H   0.25699   2.92813   3.03046
  H   0.11569   2.45883   4.32346
  O   0.82069   2.50443   3.67766
  H  -2.40201  -1.60804   3.34456
  H  -2.95511  -0.74257   4.27556
  O  -2.07551  -1.03857   4.04116
  H  -1.20031  -3.54070  -3.89504
  H  -0.02901  -2.58664  -3.65614
  O  -0.47111  -3.35843  -3.30234
  H   4.12879   0.86373  -1.77414
  H   5.32119   0.31823  -2.13424
  O   4.40229   0.06877  -2.23184
  H  -0.53071  -0.79718   4.56086
  H  -0.37571   0.33623   5.20366
  O   0.19279  -0.42078   5.06206
  H  -4.76171  -0.88714  -1.07534
  H  -5.63081  -0.86368  -0.00984
  O  -4.92761  -1.43902  -0.31104
  H   0.05099   5.20393  -0.81594
  H   1.23039   4.75703  -1.57174
  O   0.29419   4.91383  -1.69514
  83
# Step 937, RM=C5H14NO[334] (21 atoms), C5H14NO[231] d=473.652pm (21 atoms), H2O4P[25] d=542.716pm (7 atoms), H2O4P[147] d=548.975pm (7 atoms), H2O[1079] d=412.672pm (3 atoms), H2O[671] d=441.402pm (3 atoms), H2O[1036] d=446.338pm (3 atoms), H2O[928] d=459.439pm (3 atoms), H2O[475] d=484.595pm (3 atoms), H2O[1612] d=486.465pm (3 atoms), H2O[850] d=486.953pm (3 atoms), H2O[1507] d=490.304pm (3 atoms), H2O[1215] d=495.905pm (3 atoms)
  C   0.98084  -0.31100  -0.28251
  C   1.27545  -0.46820   1.22959
  C  -0.36741  -0.09550  -2.13011
  C  -1.35860  -0.92900  -0.17651
  C  -0.69696   1.45040  -0.31141
  H   1.67836   0.40760  -0.71271