  74
# Step 1, RM=C5H14NO[154] (21 atoms), C5H14NO[393] d=547.221pm (21 atoms), C2H3O2[228] d=391.136pm (7 atoms), C2H3O2[312] d=454.380pm (7 atoms), H2O[519] d=385.740pm (3 atoms), H2O[504] d=424.037pm (3 atoms), H2O[532] d=449.765pm (3 atoms), H2O[784] d=461.152pm (3 atoms), H2O[1120] d=467.120pm (3 atoms), H2O[58] d=551.123pm (3 atoms)
  C  -0.63630   0.81198   0.13477
  C  -1.28980   0.61168  -1.19043
  C   1.64310   0.23688  -0.47573
  C   0.41890  -1.34852   0.58517
  C   1.12490   0.49458   1.83797
  H  -0.36220   1.86668   0.10977
  H  -1.37860   0.68808   0.92327
  H  -2.20391  -0.98322  -0.58503
  H  -0.75480   0.95748  -2.07483
  H  -2.25275   1.09728  -1.03263
  H   1.31130  -0.06302  -1.46973
  H   2.61730  -0.20232  -0.26043
  H   0.37940  -1.78992  -0.41063
  H   1.13500  -1.93182   1.16407
  H  -0.44920  -1.61832   1.18657
  H   1.79640   1.30628  -0.62093
  H   1.30200   1.56898   1.78967
  H   2.11910   0.10518   2.05717
  H   0.35490   0.37148   2.59957
  N   0.60360   0.04398   0.52897
  O  -1.70260  -0.73052  -1.34523
  C  -0.36300  -4.99672  -3.91563
  C   1.00100  -4.30552  -3.66773
  C  -2.57692  -5.70692  -3.15023
  C  -2.18694  -3.39062  -3.88513
  C  -1.35080  -4.25672  -1.77363
  H  -0.56380  -4.96732  -4.98663
  H  -0.19520  -6.03342  -3.62383
  H   1.41140  -2.58882  -2.83113
  H   1.72010  -4.64482  -4.41323
  H   1.42070  -4.69152  -2.73873
  H  -3.55205  -5.40862  -2.76533
  H  -2.51148  -3.56972  -4.91013
  H  -2.74788  -6.09012  -4.15623
  H  -3.12681  -3.15042  -3.38803
  H  -2.29511  -6.58712  -2.57243
  H  -1.53330  -2.52052  -3.82353
  H  -2.22347  -4.03342  -1.15983
  H  -0.80250  -5.06282  -1.28623
  H  -0.67380  -3.41102  -1.65263
  N  -1.62590  -4.60032  -3.13293
  O   1.00490  -2.91102  -3.62113
  C  -3.34253  -1.18792   1.66827
  C  -4.55835  -0.36882   1.21547
  H  -4.46233   0.21168   0.29797
  H  -4.78393   0.34948   2.00367
  H  -5.43846  -1.00352   1.11267
  O  -2.91207  -2.10902   0.86297
  O  -2.74200  -0.79572   2.67527
  C   0.47250   3.28058  -3.00783
  C  -0.71160   4.11848  -3.28203
  H  -0.56700   4.80898  -4.11293
  H  -0.72320   4.70488  -2.36333
  H  -1.60730   3.49748  -3.29823
  O   1.22820   3.10858  -3.99023
  O   0.64410   2.97058  -1.79933
  H   3.23880  -1.64772  -1.78723
  H   3.08130  -2.75362  -0.89733
  O   2.59190  -2.32842  -1.60153
  H  -0.13410   3.90098   1.03117
  H   0.91880   3.90468  -0.02513
  O   0.79140   4.10818   0.90147
  H  -1.41820  -4.36822   1.79417
  H  -1.89060  -3.04722   1.88237
  O  -1.29000  -3.61272   2.36777
  H  -2.03750   0.59968   5.01207
  H  -1.92340   0.29928   3.61277
  O  -1.48140   0.83688   4.26997
  H  -0.29470   2.83958   2.95917
  H  -0.31830   2.19708   4.11907
  O   0.25870   2.86008   3.73987
  H   5.03070  -2.67552  -0.08673
  H   4.89150  -4.01672  -0.32383
  O   4.32730  -3.31782   0.00707
  74
# Step 1, RM=C5H14NO[315] (21 atoms), C5H14NO[184] d=537.103pm (21 atoms), C2H3O2[236] d=455.410pm (7 atoms), C2H3O2[167] d=465.425pm (7 atoms), H2O[65] d=437.553pm (3 atoms), H2O[982] d=488.970pm (3 atoms), H2O[188] d=509.680pm (3 atoms), H2O[150] d=545.087pm (3 atoms), H2O[28] d=591.976pm (3 atoms), H2O[922] d=664.931pm (3 atoms)
  C  -0.46844   0.32116   0.85345
  C  -1.37044   1.28946  -0.02085
  C  -0.30694  -1.42314  -0.89705
  C   1.64186  -0.09624  -0.25225
  C   0.68496  -1.61654   1.25505
  H  -1.28854  -0.16264   1.38405
  H   0.08646   0.87226   1.61275
  H  -0.27584   2.81166  -0.66625
  H  -2.18584   0.78536  -0.53975
  H  -1.85824   1.99926   0.64715
  H  -1.15474  -2.03924  -0.59745
  H   1.53286   0.66206  -1.02765
  H   0.18246  -2.19684  -1.48875
  H   2.34746  -0.85274  -0.59545
  H  -0.63214  -0.73714  -1.67905
  H   1.32246  -2.44024   0.93365
  H  -0.21414  -1.96814   1.76105
  H   1.18246  -1.14444   2.10225
  H   2.31326   0.21676   0.54735
  N   0.37466  -0.66364   0.21685
  O  -0.54944   1.99026  -1.04505
  C   1.01616   2.73636  -5.64515
  C  -0.12064   3.75956  -5.63045
  C   0.41726   1.00986  -4.06125
  C   1.55636   3.00246  -3.20935
  C   2.63656   1.44446  -4.62475
  H   0.99086   2.04686  -6.48895
  H   1.91766   3.23026  -6.00775
  H  -2.04664   3.77386  -5.85555
  H  -0.13694   4.22166  -6.61755
  H  -0.01274   4.56716  -4.90645
  H   2.19156   3.84816  -3.47255
  H   0.65256   3.51796  -2.88475
  H   2.00856   2.47416  -2.36985
  H   0.77496   0.40196  -3.23015
  H   3.45966   2.01146  -5.05965
  H   2.51056   0.63416  -5.34285
  H   3.03676   0.82456  -3.82245
  H  -0.55664   1.37626  -3.73675
  H   0.30586   0.30046  -4.88135
  N   1.38896   2.07756  -4.34895
  O  -1.45364   3.20036  -5.39455
  C   1.12146   4.34916   0.44915
  C   1.24866   4.77586   1.88125
  H   2.26036   5.14896   2.04015
  H   0.51146   5.54636   2.10735
  H   1.14036   3.99236   2.63125
  O   0.21006   4.78366  -0.29715
  O   2.00276   3.59666  -0.01345
  C  -4.43704  -0.83154   0.73435
  C  -5.88554  -0.97244   0.84785
  H  -6.23984  -0.96444   1.87865
  H  -6.47014  -0.13534   0.46615
  H  -6.18104  -1.95914   0.49135
  O  -3.84944  -0.10514   1.53295
  O  -3.90114  -1.40864  -0.23545
  H   4.51816  -2.57194   0.90095
  H   3.26126  -2.56684   0.25765
  O   3.73396  -2.02314   0.88785
  H  -3.80134  -4.11534  -1.18945
  H  -3.28044  -2.84084  -0.83775
  O  -2.98204  -3.63044  -1.28905
  H  -1.52494  -5.06310   0.41585
  H  -1.74544  -4.39507  -0.75035
  O  -1.06594  -4.98297  -0.42025
  H   4.63646   3.00636  -1.02205
  H   3.58276   3.17416  -0.07235
  O   4.53626   3.09016  -0.07375
  H   0.52516  -5.38365  -0.82875
  H   1.90586  -4.93234  -0.96165
  O   1.38346  -5.72589  -1.07835
  H  -2.29674   5.83776  -2.05715
  H  -3.32824   5.55076  -1.09255
  O  -3.18764   5.48836  -2.03735
  74
# Step 1, RM=C5H14NO[357] (21 atoms), C5H14NO[108] d=576.783pm (21 atoms), C2H3O2[127] d=471.603pm (7 atoms), C2H3O2[406] d=507.950pm (7 atoms), H2O[402] d=415.666pm (3 atoms), H2O[52] d=442.028pm (3 atoms), H2O[585] d=444.890pm (3 atoms), H2O[1078] d=488.085pm (3 atoms), H2O[922] d=503.698pm (3 atoms), H2O[960] d=646.051pm (3 atoms)
  C  -0.41724   0.55947  -0.82336
  C  -1.09114  -0.72433  -1.27746
  C  -0.56754  -0.04603   1.47244
  C   1.60726  -0.07013   0.37694
  C   0.61546   1.88547   0.93934
  H  -1.09304   1.41427  -0.84876
  H   0.27226   0.86237  -1.61136
  H  -0.97364  -2.63833  -1.18276
  H  -1.39044  -0.64013  -2.32216
  H  -2.05754  -0.68003  -0.77536
  H  -1.57904   0.35787   1.51534
  H   1.55866  -1.09123  -0.00136
  H  -0.11274   0.18467   2.43584
  H   2.06616  -0.13053   1.36374
  H  -0.59354  -1.13553   1.45464
  H  -0.24124   2.44327   1.31744
  H   1.43756   1.95037   1.65204
  H   0.86246   2.51607   0.08524
  H   2.25876   0.51577  -0.27136
  N   0.30216   0.50187   0.46394
  O  -0.40084  -1.89133  -1.09966
  C   5.15526   1.39017  -3.08206
  C   3.64306   1.20937  -3.20586
  C   5.46266   3.12807  -1.27356
  C   7.28676   1.80147  -2.10396
  C   5.59986   0.72637  -0.76086
  H   5.42136   2.06317  -3.89716
  H   5.59996   0.51617  -3.55786
  H   1.92856   2.16957  -2.90156
  H   3.33166   0.28147  -2.72626
  H   3.27236   1.21287  -4.23086
  H   7.85876   2.19577  -1.26406
  H   5.93946  -0.18883  -1.24586
  H   4.53376   0.74307  -0.53476
  H   7.40776   2.44497  -2.97536
  H   4.44756   2.99657  -0.89886
  H   6.16596   0.83107   0.16464
  H   7.64106   0.80097  -2.35216
  H   6.01496   3.37757  -0.36756
  H   5.56326   3.84067  -2.09226
  N   5.84936   1.75597  -1.78936
  O   2.79706   2.21607  -2.53216
  C  -0.57324   2.58447  -3.90196
  C  -1.58184   2.06447  -4.86606
  H  -1.55824   2.41567  -5.89766
  H  -2.58154   2.21787  -4.45976
  H  -1.51364   0.98117  -4.96596
  O   0.53696   2.01247  -3.81976
  O  -0.82774   3.54217  -3.10486
  C  -2.98324  -3.72643  -1.76046
  C  -3.75274  -3.31383  -0.51216
  H  -3.11884  -3.28583   0.37414
  H  -4.10944  -2.28883  -0.61286
  H  -4.51294  -3.98703  -0.11586
  O  -1.80384  -4.04723  -1.67946
  O  -3.63344  -3.70473  -2.84986
  H  -0.88174   3.87267  -1.37586
  H  -2.13894   3.56997  -0.80576
  O  -1.29714   3.92067  -0.51486
  H  -4.05154   0.01807   0.99184
  H  -5.03404   1.12947   0.84044
  O  -4.32104   0.69567   0.37184
  H   0.21506  -1.38733   4.64464
  H   0.73646  -2.67883   4.42674
  O   0.38696  -1.96133   3.89814
  H  -4.28034   3.66497  -0.60616
  H  -3.96334   2.23637  -0.49986
  O  -3.67904   3.01757  -0.97436
  H  -0.97454  -2.70663   3.51274
  H  -2.00604  -2.99363   4.47734
  O  -1.86544  -3.05603   3.53254
  H  -2.55294  -3.60983  -4.02896
  H  -2.95094  -3.99853  -5.36836
  O  -2.31714  -3.42473  -4.93796
  74
# Step 1, RM=C5H14NO[407] (21 atoms), C5H14NO[410] d=501.624pm (21 atoms), C2H3O2[130] d=513.445pm (7 atoms), C2H3O2[342] d=524.580pm (7 atoms), H2O[2] d=382.986pm (3 atoms), H2O[174] d=395.426pm (3 atoms), H2O[191] d=428.194pm (3 atoms), H2O[147] d=490.864pm (3 atoms), H2O[821] d=583.814pm (3 atoms), H2O[584] d=586.348pm (3 atoms)
  C  -0.95877   0.29125  -0.27077
  C  -1.45637  -1.08485   0.12033
  C   0.82093   0.47045   1.30173
  C   0.54173   2.17975  -0.20407
  C   1.30533  -0.02745  -0.96537
  H  -1.65097   0.92265   0.28633
  H  -1.28737   0.51945  -1.28467
  H  -0.92697  -2.94375   0.52033
  H  -2.37867  -1.43785  -0.34117
  H  -1.70177  -1.11325   1.18193
  H   1.75913   0.92145   1.62493
  H   0.79833  -0.60215   1.49433
  H   1.02703   0.06035  -2.01557
  H   0.06823   0.87355   1.97933
  H   1.46273   2.56695   0.23153
  H   0.47683   2.45605  -1.25647
  H  -0.26547   2.68305   0.32823
  H   2.32073   0.35965  -0.88027
  H   1.32443  -1.10005  -0.77257
  N   0.40993   0.69535  -0.02627
  O  -0.61337  -2.24435  -0.03247
  C   2.79553  -2.88875   2.86433
  C   2.86613  -3.13995   1.35843
  C   5.03203  -2.17975   3.01803
  C   3.73043  -2.36405   4.99173
  C   3.44523  -0.54945   3.57473
  H   2.81323  -3.89375   3.28593
  H   1.80713  -2.51565   3.13233
  H   3.71573  -2.34555  -0.12437
  H   1.90493  -3.52545   1.01853
  H   3.63523  -3.90455   1.24943
  H   2.77093  -2.43705   5.50383
  H   4.07033  -3.39895   5.03033
  H   4.48413  -1.82535   5.56603
  H   5.85633  -1.86335   3.65723
  H   2.52303  -0.29265   4.09593
  H   4.20663   0.04305   4.08203
  H   3.44683  -0.05345   2.60403
  H   5.23423  -3.24475   2.90473
  H   5.19813  -1.59075   2.11603
  N   3.75293  -1.97255   3.60183
  O   3.15353  -1.98675   0.54513
  C   4.13063   2.94415   0.92563
  C   5.02983   2.04005   0.13563
  H   6.05403   2.25235   0.44233
  H   4.75573   1.00855   0.35673
  H   4.86973   2.17445  -0.93417
  O   3.71433   2.51245   2.05363
  O   3.77693   4.02535   0.38423
  C  -1.48877  -4.09105   2.72853
  C  -2.50477  -4.54385   3.80073
  H  -2.25927  -4.00925   4.71833
  H  -2.40107  -5.55765   4.18753
  H  -3.51350  -4.25235   3.50833
  O  -0.96957  -3.03365   2.90333
  O  -1.22747  -4.89375   1.83833
  H  -0.42867  -1.74515   3.32413
  H  -1.09577  -0.85595   3.92733
  O  -0.16487  -0.91055   3.71143
  H  -2.51827   0.96535   3.12813
  H  -3.11362   2.12015   2.79583
  O  -2.23487   1.76005   2.67613
  H  -2.14587   1.27265  -4.03627
  H  -2.96056   0.47225  -3.14727
  O  -2.52907   1.32655  -3.16077
  H  -3.10661   2.33195  -2.13977
  H  -3.84681   3.31035  -2.42657
  O  -3.57791   2.95025  -1.58137
  H  -4.64181   2.58375  -0.10527
  H  -5.68831   1.68795  -0.18767
  O  -5.37391   2.32455   0.45433
  H  -1.07847   0.65355   5.96773
  H   0.02393   0.14325   5.07383
  O  -0.12677   0.65975   5.86553
  74
# Step 1, RM=C5H14NO[445] (21 atoms), C5H14NO[254] d=703.344pm (21 atoms), C2H3O2[336] d=442.563pm (7 atoms), C2H3O2[21] d=443.234pm (7 atoms), H2O[295] d=513.425pm (3 atoms), H2O[548] d=519.803pm (3 atoms), H2O[448] d=546.556pm (3 atoms), H2O[1114] d=595.853pm (3 atoms), H2O[858] d=654.524pm (3 atoms), H2O[1006] d=741.075pm (3 atoms)
  C  -0.25337  -0.42305   0.94388
  C  -1.68087  -0.21775   0.51948
  C   0.83463   1.24415  -0.44612
  C   2.08173  -0.67025   0.42688
  C   0.46713  -0.96955  -1.30482
  H  -0.03317   0.24095   1.77978
  H  -0.19347  -1.44075   1.32968
  H  -1.78547   1.70435   0.59028
  H  -1.88177  -0.95525  -0.25752
  H  -2.41757  -0.38055   1.30618
  H   1.00183   1.77555   0.49078
  H   1.62913   1.41305  -1.17292
  H   2.24583  -0.17715   1.38498
  H   2.93433  -0.38925  -0.19142
  H   2.00173  -1.75585   0.48188
  H   0.00633   1.65165  -1.02582
  H  -0.44397  -0.60715  -1.78092
  H   0.48493  -2.04885  -1.15342
  H   1.15883  -0.70835  -2.10572
  N   0.76093  -0.17125  -0.07292
  O  -2.05067   1.03365  -0.02032
  C   3.44523  -6.11545   2.72348
  C   4.45713  -6.01745   3.95128
  C   3.90763  -3.83945   1.82118
  C   4.87453  -5.85055   0.80328
  C   2.56853  -5.37455   0.62188
  H   2.46873  -5.87185   3.14198
  H   3.21883  -7.15105   2.46968
  H   4.91293  -5.07265   5.50088
  H   5.39973  -6.52675   3.75098
  H   4.08623  -6.69605   4.71938
  H   4.92683  -5.45425  -0.21082
  H   5.73043  -5.61435   1.43548
  H   4.82513  -3.55835   2.33818
  H   3.96393  -3.14375   0.98398
  H   3.04923  -3.45905   2.37478
  H   4.88103  -6.92885   0.64448
  H   2.30873  -6.43275   0.59308
  H   2.82393  -5.07785  -0.39542
  H   1.67723  -4.80605   0.88728
  N   3.68523  -5.27555   1.54458
  O   4.75633  -4.80105   4.60938
  C  -1.34867  -4.22705   0.45068
  C  -1.05877  -4.36985  -1.01162
  H  -1.28027  -3.50525  -1.63742
  H  -1.57947  -5.26965  -1.33942
  H  -0.02297  -4.65445  -1.19622
  O  -2.45477  -4.48785   0.86938
  O  -0.50527  -3.71195   1.23518
  C  -0.61867   3.43955   2.73908
  C  -0.03547   2.59595   3.88428
  H  -0.33257   2.74755   4.92198
  H  -0.42327   1.59445   3.69828
  H   1.02853   2.40835   3.73978
  O  -0.86407   2.91085   1.60388
  O  -0.65627   4.68195   2.94588
  H   0.76223  -2.97125   3.64148
  H   0.00183  -3.61275   2.70658
  O   0.15203  -3.70875   3.64708
  H  -1.88997   5.29345   0.18908
  H  -2.06517   3.86755   0.51208
  O  -2.51557   4.58065   0.05948
  H   1.84283  -4.83905  -2.96872
  H   2.16273  -3.53305  -2.50462
  O   1.86223  -3.94655  -3.31392
  H  -1.51307  -4.19735   3.45568
  H  -2.47097  -4.37805   2.42918
  O  -2.46047  -4.31395   3.38418
  H  -0.06467   6.84045   1.14208
  H  -0.83417   5.86272   1.87068
  O  -0.90957   6.39506   1.07878
  H   1.64433  -7.45675  -2.82852
  H   2.63313  -7.12335  -1.80082
  O   1.86073  -6.74755  -2.22312
  74
# Step 1, RM=C5H14NO[475] (21 atoms), C5H14NO[15] d=625.361pm (21 atoms), C2H3O2[71] d=443.644pm (7 atoms), C2H3O2[48] d=459.340pm (7 atoms), H2O[1092] d=435.397pm (3 atoms), H2O[36] d=447.291pm (3 atoms), H2O[463] d=462.587pm (3 atoms), H2O[752] d=472.498pm (3 atoms), H2O[201] d=482.502pm (3 atoms), H2O[141] d=484.769pm (3 atoms)
  C  -0.97220  -0.34755   0.25853
  C  -1.46290   1.09845   0.37953
  C   0.89860  -0.27205  -1.30797
  C   1.29140   0.03255   1.06123
  C   0.73010  -2.05305   0.23363
  H  -1.31360  -0.87455   1.14943
  H  -1.53560  -0.68835  -0.61007
  H  -1.57540   2.53945  -0.87407
  H  -1.25580   1.50945   1.36763
  H  -2.53090   1.00035   0.18493
  H   2.34680  -0.23365   1.00443
  H   0.15420  -2.66565  -0.45997
  H   0.96300   0.80755  -1.44347
  H   0.43140  -2.44485   1.20593
  H   1.23800   1.12065   1.02293
  H   1.82890  -0.65795  -1.72487
  H   1.77780  -2.33215   0.12163
  H   1.00230  -0.26525   2.06903
  H   0.11230  -0.59705  -1.98937
  N   0.49880  -0.62525   0.05223
  O  -0.90430   1.94295  -0.57937
  C  -4.10890  -1.36525  -3.98907
  C  -5.50540  -1.75945  -4.60797
  C  -1.83550  -0.59415  -3.96587
  C  -2.89970  -1.13795  -6.16247
  C  -3.51350   0.79405  -4.91377
  H  -4.33010  -0.89135  -3.03277
  H  -3.73630  -2.30385  -3.57887
  H  -7.00150  -0.93015  -5.29847
  H  -6.23350  -2.09425  -3.86907
  H  -5.32710  -2.60345  -5.27417
  H  -3.77950  -1.19235  -6.80367
  H  -3.77790   1.36705  -4.02507
  H  -2.17500  -0.34795  -2.95977
  H  -1.32520  -1.54855  -3.83597
  H  -4.37040   0.96725  -5.56487
  H  -2.20280  -0.46355  -6.66017
  H  -2.40370  -2.10765  -6.20477
  H  -1.04090   0.07755  -4.29077
  H  -2.77820   1.45205  -5.37707
  N  -3.10730  -0.60185  -4.75397
  O  -6.08830  -0.68835  -5.32467
  C  -2.68100  -3.33475  -1.09127
  C  -2.90500  -4.40245  -0.07477
  H  -2.00760  -4.51025   0.53443
  H  -3.05960  -5.35915  -0.57367
  H  -3.79270  -4.23465   0.53503
  O  -3.35910  -2.30825  -0.96537
  O  -1.77460  -3.49095  -1.95617
  C  -0.35710   1.16925   4.41573
  C   0.59290   2.20815   3.79813
  H   0.71530   3.16725   4.30153
  H   0.17760   2.46315   2.82313
  H   1.56490   1.73575   3.65633
  O  -0.85050   1.50075   5.49273
  O  -0.39550  -0.02165   3.98553
  H   0.76010  -4.14455  -2.87707
  H  -0.07990  -3.31785  -2.37947
  O   0.75250  -3.18835  -2.83397
  H   4.18200  -1.73845  -0.80137
  H   4.27920  -0.31805  -0.38987
  O   4.32360  -1.20075  -0.02227
  H  -5.30850  -0.31525  -0.26857
  H  -4.10530  -1.04305  -0.12257
  O  -4.58530  -0.36745   0.35643
  H  -2.92710  -0.83105   4.58973
  H  -1.97540  -0.30665   3.71873
  O  -2.89960  -0.55185   3.67453
  H   3.36790  -0.93765  -2.94927
  H   3.56530   0.32695  -2.53297
  O   3.50750  -0.09865  -3.38837
  H   2.55430  -2.90365  -2.57247
  H   3.90570  -3.22815  -2.69897
  O   3.38960  -2.53995  -2.27907
  74
# Step 1, RM=C5H14NO[477] (21 atoms), C5H14NO[200] d=535.444pm (21 atoms), C2H3O2[409] d=530.190pm (7 atoms), C2H3O2[276] d=568.993pm (7 atoms), H2O[107] d=422.532pm (3 atoms), H2O[776] d=527.933pm (3 atoms), H2O[815] d=538.609pm (3 atoms), H2O[663] d=562.401pm (3 atoms), H2O[1106] d=631.732pm (3 atoms), H2O[932] d=674.155pm (3 atoms)
  C  -0.49240   0.81959   0.54568
  C  -0.75930  -0.29661   1.64388
  C  -0.34860  -0.38931  -1.50562
  C   0.74840   1.64159  -1.23652
  C   1.56120  -0.34251  -0.16322
  H  -1.46560   1.19659   0.23138
  H  -0.18360   1.68989   1.12478
  H  -1.13640  -2.23831   1.85168
  H  -1.61380   0.01929   2.24228
  H   0.01720  -0.39151   2.40288
  H   0.32520  -0.64701  -2.32262
  H  -0.64600  -1.40321  -1.23792
  H  -0.08640   2.15179  -1.71712
  H   1.55740   1.48879  -1.95082
  H   1.20420   2.43569  -0.64512
  H  -1.10240   0.16399  -2.06572
  H   2.17960   0.17389   0.57098
  H   2.23890  -0.54191  -0.99332
  H   1.33840  -1.37621   0.10138
  N   0.36430   0.40899  -0.53842
  O  -1.01690  -1.60511   1.16038
  C   2.40710  -2.90811   3.14198
  C   3.41610  -1.82261   2.87398
  C   3.80850  -4.71991   3.74518
  C   1.53080  -5.15431   3.06768
  C   3.16830  -4.62331   1.36058
  H   2.04220  -2.81671   4.16508
  H   1.43530  -2.62041   2.74078
  H   4.41720  -1.16261   1.43138
  H   4.32600  -2.01391   3.44278
  H   2.98070  -0.85851   3.13658
  H   1.19740  -5.16841   4.10538
  H   1.55990  -6.22981   2.89298
  H   0.67510  -4.76861   2.51338
  H   4.74740  -4.23511   3.47748
  H   3.18790  -5.67211   1.06438
  H   2.48130  -4.06351   0.72598
  H   4.18740  -4.26991   1.20348
  H   4.11210  -5.75691   3.60148
  H   3.59710  -4.48421   4.78818
  N   2.70960  -4.33981   2.79658
  O   3.68240  -1.75121   1.51308
  C   2.24830   0.58229  -4.78872
  C   0.83470   1.08379  -4.97292
  H   0.19560   0.78109  -4.14342
  H   0.46210   0.67379  -5.91162
  H   0.75680   2.16209  -5.11202
  O   3.15260   1.00529  -5.52132
  O   2.41080  -0.24051  -3.92442
  C  -1.79010  -2.92231   4.51598
  C  -3.04480  -2.11101   4.51008
  H  -3.55540  -2.20001   5.46898
  H  -3.04290  -1.09551   4.11418
  H  -3.72830  -2.64821   3.85258
  O  -1.51890  -3.35651   5.67428
  O  -1.20230  -3.13621   3.39388
  H   3.00970   3.79609   0.94538
  H   3.29940   2.57619   1.38878
  O   2.49080   3.08359   1.31858
  H   4.53560   1.50149   2.54885
  H   5.16920   1.04789   1.48477
  O   4.65160   1.83409   1.65882
  H  -3.58280   3.12469   3.32285
  H  -3.42620   4.00079   2.22226
  O  -3.66770   3.08649   2.37019
  H  -1.59420  -4.25721   2.35648
  H  -2.85410  -4.90171   1.87868
  O  -1.90260  -4.98861   1.82158
  H   5.27820   1.20949   4.77418
  H   4.09420   0.44539   4.67579
  O   4.64930   0.96569   4.09498
  H  -5.08310  -4.80591   1.26550
  H  -5.06240  -4.85741   2.63713
  O  -4.46040  -4.56681   1.95203
  74
# Step 1, RM=C5H14NO[487] (21 atoms), C5H14NO[404] d=586.541pm (21 atoms), C2H3O2[214] d=440.163pm (7 atoms), C2H3O2[161] d=471.166pm (7 atoms), H2O[662] d=417.257pm (3 atoms), H2O[634] d=436.946pm (3 atoms), H2O[173] d=492.344pm (3 atoms), H2O[434] d=504.722pm (3 atoms), H2O[338] d=514.715pm (3 atoms), H2O[271] d=517.686pm (3 atoms)
  C   0.28953  -0.71038   0.67434
  C   1.65433  -0.84278  -0.09566
  C  -1.79517   0.34162   1.34634
  C  -1.29607  -0.00088  -0.95556
  C  -0.05377   1.62582   0.38134
  H  -0.18757  -1.67478   0.50004
  H   0.53423  -0.70768   1.73654
  H   2.59343  -0.72638  -1.76676
  H   2.25493   0.02262   0.18484
  H   2.19833  -1.75678   0.14234
  H  -0.59677   0.09592  -1.78606
  H  -1.46067   0.54782   2.36304
  H  -2.56677   1.08972   1.16414
  H  -2.13077   0.63042  -1.25996
  H  -2.31557  -0.61358   1.27624
  H  -0.79527   2.42442   0.40244
  H   0.52923   1.85742  -0.50996
  H   0.60463   1.71622   1.24534
  H  -1.64767  -1.02708  -1.06216
  N  -0.69017   0.30582   0.34114
  O   1.69403  -0.69638  -1.47836
  C   2.13823   0.95532  -4.58196
  C   1.77853   1.80112  -3.29176
  C   3.62973   0.45212  -6.30226
  C   2.80163   2.64252  -6.19826
  C   4.51093   1.86112  -4.70556
  H   1.23753   0.86932  -5.18976
  H   2.37213  -0.03548  -4.19256
  H   1.94683   3.68002  -2.89486
  H   2.59233   1.74792  -2.56846
  H   0.90573   1.35932  -2.81116
  H   2.36483   3.45332  -5.61526
  H   4.96633   1.07592  -4.10216
  H   2.85833   0.05712  -6.96336
  H   4.32353   2.58172  -3.90946
  H   3.66173   3.00352  -6.76216
  H   4.37723   0.74902  -7.03796
  H   5.30283   2.09092  -5.41836
  H   2.16573   2.32522  -7.02486
  H   4.06163  -0.42128  -5.81356
  N   3.23103   1.47032  -5.36576
  O   1.45893   3.19382  -3.54176
  C   0.59243  -3.87568   1.91904
  C  -0.49907  -4.92978   2.00474
  H  -0.13687  -5.88718   2.37924
  H  -1.35927  -4.59988   2.58724
  H  -0.71857  -5.15758   0.96164
  O   0.58513  -2.98938   2.79964
  O   1.44863  -3.87908   1.00764
  C   2.66543   3.93942  -0.52026
  C   3.23663   2.95302   0.43204
  H   3.61363   2.00622   0.04544
  H   3.99473   3.45412   1.03394
  H   2.46363   2.70842   1.16064
  O   3.19573   4.01002  -1.64176
  O   1.59233   4.50982  -0.26826
  H   0.86973   0.62962   3.95374
  H   0.36333   1.98202   3.72874
  O   1.19093   1.50102   3.72204
  H  -0.71317  -1.05408   4.40274
  H   0.44123  -1.67318   3.72374
  O   0.22713  -0.92408   4.27984
  H  -1.99407   2.55072   3.94754
  H  -0.87057   3.33912   4.59294
  O  -1.04377   2.66452   3.93634
  H  -4.83977   0.17982  -0.59446
  H  -4.82527   1.14122   0.52184
  O  -4.92877   1.11852  -0.42956
  H  -3.03637  -1.04048   3.84474
  H  -2.80477   0.21942   4.42714
  O  -2.44397  -0.66448   4.49584
  H  -4.54087  -0.41748   2.67884
  H  -4.20937  -1.47408   1.89904
  O  -4.16547  -1.28388   2.83614
  74
# Step 2, RM=C5H14NO[38] (21 atoms), C5H14NO[100] d=589.191pm (21 atoms), C2H3O2[380] d=561.703pm (7 atoms), C2H3O2[358] d=562.335pm (7 atoms), H2O[522] d=404.632pm (3 atoms), H2O[990] d=419.497pm (3 atoms), H2O[290] d=439.924pm (3 atoms), H2O[929] d=446.276pm (3 atoms), H2O[1096] d=489.965pm (3 atoms), H2O[679] d=492.087pm (3 atoms)
  C   0.30003  -0.10969  -0.97694
  C   0.57753   1.41551  -0.92914
  C  -1.87277  -0.09399   0.31736
  C  -0.54747  -2.06519  -0.02024
  C   0.24913  -0.40439   1.46586
  H  -0.32977  -0.31979  -1.84134
  H   1.28573  -0.56589  -0.88584
  H   1.81143   2.61291  -0.20124
  H  -0.30847   1.96721  -0.61494
  H   0.78533   1.79541  -1.92944
  H   0.42523  -2.53319   0.13136
  H  -0.90267  -2.51529  -0.94724
  H  -1.18667  -2.60749   0.67656
  H  -1.81557   0.96541   0.56756
  H   1.27663  -0.75799   1.55236
  H   0.29223   0.61411   1.85156
  H  -0.28427  -0.90309   2.27506
  H  -2.40927  -0.14189  -0.63024
  H  -2.54477  -0.56769   1.03286
  N  -0.48177  -0.63829   0.16256
  O   1.63883   1.68931  -0.10024
  C  -0.56437  -1.54055   5.31096
  C   0.18313  -2.65616   4.58206
  C  -2.90197  -2.00502   4.79716
  C  -2.25857  -0.56165   6.54786
  C  -1.95097  -2.94794   6.78066
  H   0.12543  -1.27062   6.11056
  H  -0.61537  -0.65077   4.68346
  H  -1.01807  -3.93285   3.63946
  H   0.31583  -3.57804   5.14826
  H   1.11133  -2.22543   4.20646
  H  -2.12697   0.31000   5.90676
  H  -1.22817  -2.82668   7.58756
  H  -1.68907  -3.93160   6.39086
  H  -1.67517  -0.36570   7.44746
  H  -2.81027  -2.99199   4.34376
  H  -2.91157  -3.06854   7.28136
  H  -3.27607  -0.44673   6.92146
  H  -3.84967  -2.00694   5.33576
  H  -2.90667  -1.37123   3.91036
  N  -1.89127  -1.78413   5.86536
  O  -0.55907  -3.12937   3.44786
  C  -2.98747   2.10000  -4.36494
  C  -2.37457   1.98490  -2.98974
  H  -3.01777   1.34320  -2.38754
  H  -1.42617   1.54450  -3.29754
  H  -2.20557   2.93840  -2.48934
  O  -4.15867   1.91240  -4.58174
  O  -2.22477   2.30800  -5.31554
  C  -4.86567  -2.74589   0.83436
  C  -3.70197  -3.62502   1.25586
  H  -2.98017  -3.11548   1.89426
  H  -4.10297  -4.49216   1.78056
  H  -3.19977  -3.79886   0.30416
  O  -5.08247  -2.45865  -0.35724
  O  -5.62267  -2.25305   1.70966
  H  -2.51187   0.97890   3.48916
  H  -1.50497   2.03410   3.87886
  O  -1.57297   1.16470   3.48416
  H   2.88783  -3.65459   2.00196
  H   2.78113  -2.37651   2.47626
  O   2.43833  -2.85694   1.72276
  H  -3.25917  -3.18959  -2.26194
  H  -3.75517  -2.40119  -1.27134
  O  -3.12537  -2.28389  -1.98264
  H  -1.54377  -2.16295  -3.95514
  H  -2.27877  -1.30117  -3.14674
  O  -1.74387  -1.22706  -3.93704
  H  -1.97587   4.18800   0.63736
  H  -1.91017   5.33670  -0.37264
  O  -1.37937   4.67180   0.06596
  H   1.35903   4.54320  -0.78994
  H   0.19923   4.77210   0.14636
  O   1.15483   4.81010   0.10626
  74
# Step 2, RM=C5H14NO[176] (21 atoms), C5H14NO[141] d=622.554pm (21 atoms), C2H3O2[451] d=460.043pm (7 atoms), C2H3O2[152] d=502.093pm (7 atoms), H2O[30] d=388.583pm (3 atoms), H2O[488] d=412.656pm (3 atoms), H2O[1073] d=430.107pm (3 atoms), H2O[177] d=481.350pm (3 atoms), H2O[159] d=482.395pm (3 atoms), H2O[189] d=491.118pm (3 atoms)
  C   0.48438   0.07957  -0.93933
  C  -0.35912   1.32997  -1.20843
  C  -0.80632  -1.31433   0.57267
  C   1.58908  -1.41433   0.59347
  C   0.57318   0.42907   1.51037
  H   1.49468   0.48117  -1.01693
  H   0.23268  -0.55023  -1.79263
  H  -2.06072   2.06977  -0.62443
  H  -0.27922   1.73807  -2.21603
  H  -0.00372   2.12077  -0.54783
  H   2.44888  -0.77433   0.39497
  H   1.49528  -2.26163  -0.08573
  H   1.74748  -1.67293   1.64037
  H  -0.74992  -2.08873   1.33767
  H   1.49968   0.98837   1.38087
  H  -0.27132   1.11807   1.50027
  H   0.57648  -0.07693   2.47577
  H  -0.99402  -1.85683  -0.35383
  H  -1.69032  -0.68343   0.66547
  N   0.44608  -0.55083   0.40587
  O  -1.71952   1.24167  -0.92603
  C  -5.58582   0.69537  -1.37813
  C  -7.01052   1.38467  -1.31643
  C  -4.07772  -1.09913  -1.17553
  C  -5.68992  -1.31373  -2.84853
  C  -6.28802  -1.57113  -0.52363
  H  -5.18432   1.12977  -0.46263
  H  -5.03292   1.15997  -2.19463
  H  -7.47862   1.29667  -3.15493
  H  -7.46642   1.04557  -0.38623
  H  -6.87882   2.46507  -1.37513
  H  -3.79902  -2.12783  -1.40403
  H  -5.61442  -2.39943  -2.90983
  H  -3.78552  -0.99523  -0.13053
  H  -3.31272  -0.56963  -1.74333
  H  -6.21292  -1.07323   0.44317
  H  -7.34382  -1.51373  -0.78823
  H  -5.98382  -2.61193  -0.41353
  H  -6.73512  -1.09113  -3.06283
  H  -5.02102  -0.99633  -3.64853
  N  -5.46732  -0.77583  -1.46343
  O  -7.81642   0.92227  -2.35573
  C  -3.65072   0.95367   2.63187
  C  -3.45702   2.26467   1.89577
  H  -4.22912   2.47357   1.15527
  H  -2.48222   2.29857   1.40927
  H  -3.45072   3.12627   2.56337
  O  -2.97082   0.77877   3.66307
  O  -4.52042   0.10397   2.23027
  C   3.71878   2.99227   1.73297
  C   3.07248   3.45907   0.47077
  H   1.99888   3.56987   0.31897
  H   3.30958   2.66247  -0.23453
  H   3.55378   4.34827   0.06367
  O   4.23218   1.91267   1.62187
  O   3.65708   3.68137   2.76047
  H  -1.11232  -1.73573  -3.30523
  H  -0.64162  -3.07873  -3.03343
  O  -1.28512  -2.45473  -2.69743
  H   0.75108   0.42237  -3.82613
  H   1.95888  -0.10093  -3.49973
  O   1.64008   0.76777  -3.74443
  H   1.78538  -2.47363  -3.50423
  H   2.95098  -2.57253  -2.82863
  O   2.34328  -1.85993  -3.02643
  H   1.62628  -1.33553   4.41027
  H   0.28898  -0.94793   4.43177
  O   0.77498  -1.77263   4.43307
  H  -0.57002   1.39187   5.33847
  H  -1.54702   0.62767   4.49347
  O  -0.61382   0.68027   4.69977
  H   4.23508   0.25527   1.89347
  H   4.02718  -0.67733   2.93667
  O   4.42698  -0.66633   2.06697
  74
# Step 2, RM=C5H14NO[195] (21 atoms), C5H14NO[93] d=564.611pm (21 atoms), C2H3O2[93] d=469.143pm (7 atoms), C2H3O2[131] d=498.624pm (7 atoms), H2O[190] d=402.709pm (3 atoms), H2O[387] d=464.874pm (3 atoms), H2O[378] d=511.624pm (3 atoms), H2O[943] d=537.987pm (3 atoms), H2O[675] d=549.523pm (3 atoms), H2O[416] d=643.876pm (3 atoms)
  C  -0.53894  -0.77861   0.11078
  C  -1.84594  -0.02111   0.15218
  C   0.71996   0.16169  -1.77332
  C   1.10176   0.96019   0.51068
  C   1.90286  -1.09231  -0.09042
  H  -0.25854  -1.10471   1.11238
  H  -0.71984  -1.63051  -0.54462
  H  -2.08104   0.41159   2.04588
  H  -2.69284  -0.70291   0.22968
  H  -2.01004   0.66279  -0.68052
  H   0.45906  -0.79651  -2.22262
  H  -0.01914   0.95269  -1.90052
  H   2.92796  -0.75631  -0.24652
  H   1.72936  -1.97871  -0.70052
  H   1.65976   0.55939  -2.15642
  H   1.18126   0.68659   1.56278
  H   2.07156   1.35559   0.20858
  H   0.37736   1.76839   0.41018
  H   1.91086  -1.40811   0.95278
  N   0.75146  -0.19531  -0.33412
  O  -1.94934   0.87389   1.23238
  C  -0.53384   2.96149   3.68968
  C  -2.00164   3.26639   4.08858
  C   1.91116   2.74689   4.23968
  C   0.10746   1.78929   5.61208
  C   0.45716   4.13899   5.55428
  H  -0.51664   1.96659   3.24488
  H  -0.15744   3.53769   2.84448
  H  -2.50844   4.80049   5.15148
  H  -2.57804   2.88249   3.24678
  H  -2.35854   2.75319   4.98148
  H   2.04126   1.78669   3.74038