  74
# Step 5, RM=C5H14NO[290] (21 atoms), C5H14NO[139] d=525.358pm (21 atoms), C2H3O2[323] d=519.373pm (7 atoms), C2H3O2[298] d=528.340pm (7 atoms), H2O[264] d=448.735pm (3 atoms), H2O[670] d=482.638pm (3 atoms), H2O[115] d=505.128pm (3 atoms), H2O[581] d=508.736pm (3 atoms), H2O[671] d=549.268pm (3 atoms), H2O[265] d=572.606pm (3 atoms)
  C   0.53683   0.73221  -0.48711
  C  -0.73807   0.87991  -1.44491
  C   1.69173   0.00651   1.39299
  C   0.22223  -1.52459   0.40969
  C  -0.64437   0.34951   1.60929
  H   1.36123   0.38421  -1.10951
  H   0.76523   1.78451  -0.31781
  H  -0.75147  -0.70569  -2.57641
  H  -0.50387   1.55041  -2.27171
  H  -1.49537   1.46581  -0.92401
  H   2.07713   1.02591   1.36909
  H   0.93083  -1.80189  -0.37071
  H   1.72283  -0.37289   2.41429
  H   0.41843  -2.17299   1.26359
  H   2.40153  -0.61039   0.84199
  H  -0.71897  -1.77699  -0.07891
  H  -0.61967  -0.09849   2.60259
  H  -0.54827   1.41301   1.82819
  H  -1.68457   0.23161   1.30559
  N   0.38253  -0.09609   0.71599
  O  -1.34827  -0.26879  -1.98831
  C   4.05273  -2.78769  -3.39741
  C   2.56273  -2.81989  -3.94191
  C   3.95993  -0.83849  -1.74841
  C   4.75203  -0.44869  -3.97931
  C   5.96723  -1.64709  -2.36401
  H   4.08343  -3.50559  -2.57781
  H   4.71963  -3.25789  -4.12011
  H   0.79173  -2.11099  -3.62671
  H   2.42393  -2.32999  -4.90571
  H   2.22383  -3.83979  -4.12371
  H   5.41223  -0.72439  -4.80171
  H   3.76953  -0.31439  -4.43191
  H   4.98493   0.57771  -3.69591
  H   3.74893  -1.57349  -0.97171
  H   6.50703  -2.31029  -3.04001
  H   5.98563  -1.93869  -1.31391
  H   6.53733  -0.72499  -2.25041
  H   4.59633  -0.08029  -1.29201
  H   3.02103  -0.35309  -2.01491
  N   4.61293  -1.44269  -2.92681
  O   1.60273  -2.20659  -3.15111
  C   2.21843   2.87451  -3.58631
  C   2.85273   3.09321  -4.96091
  H   2.04863   3.17721  -5.69201
  H   3.43853   2.19291  -5.14661
  H   3.60793   3.87901  -4.94481
  O   1.04453   3.35341  -3.50851
  O   2.84933   2.31381  -2.63751
  C  -0.59007  -0.92909  -5.23621
  C   0.55733   0.06441  -5.07591
  H   0.54123   0.86761  -5.81261
  H   0.40683   0.52651  -4.10021
  H   1.55313  -0.36269  -5.19471
  O  -0.67907  -1.80809  -4.33101
  O  -1.43127  -0.70669  -6.12411
  H  -0.60867  -2.12109   3.87629
  H  -1.67797  -2.72849   3.30989
  O  -0.73837  -2.90729   3.34589
  H   3.74433   2.17181  -1.30681
  H   4.88463   2.78861  -0.70181
  O   4.30903   2.04001  -0.54521
  H  -0.69817  -0.39549   5.57049
  H   0.49403  -0.72569   5.09249
  O  -0.39977  -1.00749   4.89759
  H  -2.45507  -4.13279   1.96019
  H  -1.08397  -4.16809   2.04719
  O  -1.74737  -4.56769   1.48459
  H  -3.00777   4.38781  -0.10091
  H  -2.26137   4.97191   1.03059
  O  -2.29857   5.00621   0.07479
  H  -5.23857   3.08951  -0.26551
  H  -4.84507   3.62191  -1.42571
  O  -4.43217   3.50581  -0.57001
