  74
# Step 2, RM=C5H14NO[195] (21 atoms), C5H14NO[93] d=564.611pm (21 atoms), C2H3O2[93] d=469.143pm (7 atoms), C2H3O2[131] d=498.624pm (7 atoms), H2O[190] d=402.709pm (3 atoms), H2O[387] d=464.874pm (3 atoms), H2O[378] d=511.624pm (3 atoms), H2O[943] d=537.987pm (3 atoms), H2O[675] d=549.523pm (3 atoms), H2O[416] d=643.876pm (3 atoms)
  C  -0.53894  -0.77861   0.11078
  C  -1.84594  -0.02111   0.15218
  C   0.71996   0.16169  -1.77332
  C   1.10176   0.96019   0.51068
  C   1.90286  -1.09231  -0.09042
  H  -0.25854  -1.10471   1.11238
  H  -0.71984  -1.63051  -0.54462
  H  -2.08104   0.41159   2.04588
  H  -2.69284  -0.70291   0.22968
  H  -2.01004   0.66279  -0.68052
  H   0.45906  -0.79651  -2.22262
  H  -0.01914   0.95269  -1.90052
  H   2.92796  -0.75631  -0.24652
  H   1.72936  -1.97871  -0.70052
  H   1.65976   0.55939  -2.15642
  H   1.18126   0.68659   1.56278
  H   2.07156   1.35559   0.20858
  H   0.37736   1.76839   0.41018
  H   1.91086  -1.40811   0.95278
  N   0.75146  -0.19531  -0.33412
  O  -1.94934   0.87389   1.23238
  C  -0.53384   2.96149   3.68968
  C  -2.00164   3.26639   4.08858
  C   1.91116   2.74689   4.23968
  C   0.10746   1.78929   5.61208
  C   0.45716   4.13899   5.55428
  H  -0.51664   1.96659   3.24488
  H  -0.15744   3.53769   2.84448
  H  -2.50844   4.80049   5.15148
  H  -2.57804   2.88249   3.24678
  H  -2.35854   2.75319   4.98148
  H   2.04126   1.78669   3.74038
  H   0.05886   0.81149   5.13288
  H   2.15666   3.64049   3.66578
  H   0.82846   1.57279   6.40038
  H   2.61956   2.73439   5.06798
  H  -0.82604   1.94769   6.15208
  H   1.09676   3.95959   6.41848
  H  -0.37334   4.18259   6.25878
  H   0.73946   5.14219   5.23478
  N   0.50666   2.91179   4.77418
  O  -2.19984   4.64889   4.27118
  C  -2.14714  -3.42751  -2.21682
  C  -3.26144  -4.10501  -2.92382
  H  -2.70344  -4.91671  -3.39062
  H  -4.06654  -4.35841  -2.23412
  H  -3.65814  -3.44081  -3.69155
  O  -1.84054  -2.29011  -2.56772
  O  -1.67724  -4.06531  -1.22082
  C  -2.57974  -0.34291   4.21378
  C  -2.52474  -0.90681   5.57658
  H  -2.14204  -1.92331   5.48518
  H  -3.50044  -0.79531   6.04958
  H  -1.88384  -0.19331   6.09448
  O  -3.59054   0.28569   3.78338
  O  -1.68364  -0.64741   3.39678
  H   0.75246  -1.92771   3.26748
  H  -0.61274  -1.86281   3.21918
  O   0.04126  -2.55911   3.15938
  H   0.94746  -3.68441   2.05348
  H   0.74756  -4.62611   1.10648
  O   1.51416  -4.17081   1.45478
  H   1.93706   4.25049   0.12658
  H   2.02706   5.48389   0.72818
  O   2.01296   4.57379   1.02428
  H   4.05586  -2.17071   2.09418
  H   3.10246  -3.24701   1.88198
  O   4.04906  -3.10511   1.88678
  H  -1.02454  -5.05591  -0.11822
  H  -1.39154  -5.86221   0.97508
  O  -0.60604  -5.41081   0.66598
  H   4.04746  -0.13861  -5.25131
  H   4.29116  -0.12991  -3.84041
  O   4.52966   0.38489  -4.61131
