  83
# Step 8670, RM=C5H14NO[193] (21 atoms), C5H14NO[177] d=586.948pm (21 atoms), H2O4P[39] d=487.191pm (7 atoms), H2O4P[166] d=538.232pm (7 atoms), H2O[1239] d=397.748pm (3 atoms), H2O[1134] d=460.394pm (3 atoms), H2O[259] d=473.837pm (3 atoms), H2O[1617] d=477.314pm (3 atoms), H2O[1118] d=477.548pm (3 atoms), H2O[29] d=489.007pm (3 atoms), H2O[787] d=490.612pm (3 atoms), H2O[1236] d=511.588pm (3 atoms), H2O[496] d=512.656pm (3 atoms)
  C   0.22281   1.00062   0.48137
  C   0.83031   0.21282   1.74467
  C  -0.66159   1.20522  -1.80739
  C  -1.28569  -0.80658  -0.61087
  C   0.91311  -0.63858  -1.28898
  H  -0.60439   1.65852   0.74777
  H   1.05161   1.70302   0.39267
  H   0.55681  -1.35108   2.81537
  H   0.76261   0.86202   2.61767
  H   1.86341  -0.12018   1.64457
  H  -1.64089   1.60622  -1.54615
  H   0.07541   2.00832  -1.80289
  H  -0.79149   0.79842  -2.81028
  H  -1.54479  -1.36868  -1.50815
  H  -2.20519  -0.40328  -0.18686
  H  -1.10119  -1.56078   0.15422
  H   1.24721  -1.46598  -0.66289
  H   0.78111  -0.99558  -2.31037
  H   1.82911  -0.07608  -1.46986
  N  -0.19139   0.19352  -0.79381
  O   0.13571  -0.98178   2.05417
  C  -1.44539   0.78862   4.70267
  C  -0.91419   0.23902   6.03897
  C  -3.88529   1.30262   5.11647
  C  -2.65749   2.43402   3.44167
  C  -2.22059   2.85842   5.86057
  H  -1.71489   0.02572   3.97217
  H  -0.49959   1.16312   4.31107
  H  -1.54769  -0.74208   7.60227
  H  -0.06679  -0.39568   5.77957
  H  -0.41689   0.94192   6.70737
  H  -4.39449   0.87002   4.25527
  H  -3.79539   0.53292   5.88307
  H  -4.57849   2.09222   5.40627
  H  -1.76179   3.00452   3.19577
  H  -3.38439   3.22622   3.26237
  H  -2.89309   1.76622   2.61307
  H  -1.15419   3.07162   5.93367
  H  -2.65439   3.78102   5.47497
  H  -2.69529   2.85672   6.84177
  N  -2.57109   1.83682   4.81537
  O  -1.90659  -0.43768   6.78277
  H   4.51651   4.85222  -1.80818
  H   1.09421   4.16202  -0.85135
  O   3.59251   4.68322  -1.84419
  O   1.80701   4.16512  -0.23847
  O   2.94681   2.15892  -1.28705
  O   4.12681   3.59182   0.43857
  P   3.12791   3.65392  -0.76806
  H  -4.64929  -2.51948   0.02098
  H  -2.56269  -1.62528   2.18297
  O  -3.88599  -2.84428   0.46317
  O  -3.39969  -1.59038   2.60937
  O  -3.88139  -4.03668   2.73107
  O  -5.74740  -2.40448   2.21667
  P  -4.20509  -2.71608   2.00547
  H  -2.29589   3.33112  -0.09830
  H  -1.18779   4.21262  -0.58283
  O  -1.44589   3.68032   0.16972
  H   2.38551   2.34932  -4.29031
  H   2.25611   1.83692  -2.93616
  O   1.93251   1.65102  -3.81762
  H  -0.34719  -4.14548  -2.58952
  H   0.68681  -3.39668  -3.04424
  O  -0.24709  -3.45568  -3.24565
  H   1.53791  -0.69268   4.36457
  H   2.21501  -1.93748   4.36957
  O   1.31701  -1.61978   4.27517
  H   2.68821  -4.08058  -2.88572
  H   2.97601  -2.83158  -2.51845
  O   2.19201  -3.37808  -2.46567
  H  -1.50809  -1.50908  -4.92376
  H  -0.42089  -2.00128  -4.14297
  O  -0.62129  -1.23878  -4.68572
  H  -4.27179   2.18802  -0.94869
  H  -4.73079   3.26052  -0.27668
  O  -3.86169   2.91212  -0.47565
  H   3.76551   2.75362   1.96237
  H   4.58621   1.82142   2.42467
  O   3.74141   2.16432   2.71627
  H   2.30241   1.56262   5.20277
  H   2.62761   1.40502   3.77487
  O   2.23111   0.91892   4.49787
