  74
# Step 1, RM=C5H14NO[477] (21 atoms), C5H14NO[200] d=535.444pm (21 atoms), C2H3O2[409] d=530.190pm (7 atoms), C2H3O2[276] d=568.993pm (7 atoms), H2O[107] d=422.532pm (3 atoms), H2O[776] d=527.933pm (3 atoms), H2O[815] d=538.609pm (3 atoms), H2O[663] d=562.401pm (3 atoms), H2O[1106] d=631.732pm (3 atoms), H2O[932] d=674.155pm (3 atoms)
  C  -0.49240   0.81959   0.54568
  C  -0.75930  -0.29661   1.64388
  C  -0.34860  -0.38931  -1.50562
  C   0.74840   1.64159  -1.23652
  C   1.56120  -0.34251  -0.16322
  H  -1.46560   1.19659   0.23138
  H  -0.18360   1.68989   1.12478
  H  -1.13640  -2.23831   1.85168
  H  -1.61380   0.01929   2.24228
  H   0.01720  -0.39151   2.40288
  H   0.32520  -0.64701  -2.32262
  H  -0.64600  -1.40321  -1.23792
  H  -0.08640   2.15179  -1.71712
  H   1.55740   1.48879  -1.95082
  H   1.20420   2.43569  -0.64512
  H  -1.10240   0.16399  -2.06572
  H   2.17960   0.17389   0.57098
  H   2.23890  -0.54191  -0.99332
  H   1.33840  -1.37621   0.10138
  N   0.36430   0.40899  -0.53842
  O  -1.01690  -1.60511   1.16038
  C   2.40710  -2.90811   3.14198
  C   3.41610  -1.82261   2.87398
  C   3.80850  -4.71991   3.74518
  C   1.53080  -5.15431   3.06768
  C   3.16830  -4.62331   1.36058
  H   2.04220  -2.81671   4.16508
  H   1.43530  -2.62041   2.74078
  H   4.41720  -1.16261   1.43138
  H   4.32600  -2.01391   3.44278
  H   2.98070  -0.85851   3.13658
  H   1.19740  -5.16841   4.10538
  H   1.55990  -6.22981   2.89298
  H   0.67510  -4.76861   2.51338
  H   4.74740  -4.23511   3.47748
  H   3.18790  -5.67211   1.06438
  H   2.48130  -4.06351   0.72598
  H   4.18740  -4.26991   1.20348
  H   4.11210  -5.75691   3.60148
  H   3.59710  -4.48421   4.78818
  N   2.70960  -4.33981   2.79658
  O   3.68240  -1.75121   1.51308
  C   2.24830   0.58229  -4.78872
  C   0.83470   1.08379  -4.97292
  H   0.19560   0.78109  -4.14342
  H   0.46210   0.67379  -5.91162
  H   0.75680   2.16209  -5.11202
  O   3.15260   1.00529  -5.52132
  O   2.41080  -0.24051  -3.92442
  C  -1.79010  -2.92231   4.51598
  C  -3.04480  -2.11101   4.51008
  H  -3.55540  -2.20001   5.46898
  H  -3.04290  -1.09551   4.11418
  H  -3.72830  -2.64821   3.85258
  O  -1.51890  -3.35651   5.67428
  O  -1.20230  -3.13621   3.39388
  H   3.00970   3.79609   0.94538
  H   3.29940   2.57619   1.38878
  O   2.49080   3.08359   1.31858
  H   4.53560   1.50149   2.54885
  H   5.16920   1.04789   1.48477
  O   4.65160   1.83409   1.65882
  H  -3.58280   3.12469   3.32285
  H  -3.42620   4.00079   2.22226
  O  -3.66770   3.08649   2.37019
  H  -1.59420  -4.25721   2.35648
  H  -2.85410  -4.90171   1.87868
  O  -1.90260  -4.98861   1.82158
  H   5.27820   1.20949   4.77418
  H   4.09420   0.44539   4.67579
  O   4.64930   0.96569   4.09498
  H  -5.08310  -4.80591   1.26550
  H  -5.06240  -4.85741   2.63713
  O  -4.46040  -4.56681   1.95203
