  83
# Step 2451, RM=C5H14NO[243] (21 atoms), C5H14NO[343] d=571.553pm (21 atoms), H2O4P[339] d=495.440pm (7 atoms), H2O4P[293] d=537.069pm (7 atoms), H2O[69] d=481.050pm (3 atoms), H2O[1638] d=486.891pm (3 atoms), H2O[1089] d=496.164pm (3 atoms), H2O[443] d=497.896pm (3 atoms), H2O[682] d=541.321pm (3 atoms), H2O[1416] d=542.593pm (3 atoms), H2O[339] d=544.193pm (3 atoms), H2O[647] d=548.302pm (3 atoms), H2O[627] d=576.920pm (3 atoms)
  C   0.74280  -0.69865  -0.23413
  C  -0.45390  -1.75385  -0.40533
  C  -0.54540   1.06905   1.03197
  C   1.52140   1.55885  -0.02023
  C  -0.39200   1.10015  -1.33253
  H   1.23190  -0.80965  -1.20183
  H   1.21870  -0.93265   0.71817
  H  -1.44510  -2.66935   1.07607
  H   0.04920  -2.67595  -0.69613
  H  -1.19140  -1.75175  -1.20803
  H  -0.09790   0.73775   1.96897
  H  -1.58150   0.73055   1.02047
  H  -0.59790   2.15775   1.02547
  H   1.35700   2.62755  -0.15773
  H   2.21780   1.30385  -0.81903
  H   2.08150   1.48525   0.91187
  H  -1.26070   0.51455  -1.63333
  H   0.29660   0.92155  -2.15833
  H  -0.67830   2.14695  -1.43473
  N   0.31940   0.71765  -0.09753
  O  -1.03570  -1.82435   0.96927
  C  -4.35370   4.83985   1.14177
  C  -3.29360   5.27335   0.11007
  C  -2.76920   4.15465   2.83657
  C  -3.99660   2.42115   1.65597
  C  -5.05992   4.00345   3.16667
  H  -4.68790   5.76145   1.61827
  H  -5.24087   4.46695   0.62997
  H  -1.83830   4.43485  -0.84863
  H  -3.74870   5.76545  -0.74953
  H  -2.60270   5.98065   0.56897
  H  -2.60010   3.38755   3.59227
  H  -1.84380   4.05885   2.26877
  H  -2.64390   5.11105   3.34427
  H  -4.84550   2.11055   1.04697
  H  -3.93060   1.82195   2.56407
  H  -3.13190   2.29555   1.00427
  H  -6.03611   3.80545   2.72397
  H  -5.10658   5.03175   3.52487
  H  -4.98845   3.35245   4.03807
  N  -4.01160   3.82715   2.17877
  O  -2.52560   4.14395  -0.26903
  H  -3.66850  -1.67595   1.12277
  H  -4.28750   0.11655  -2.16593
  O  -4.51670  -1.33785   0.89937
  O  -4.42100   0.04435  -1.23823
  O  -6.17604  -1.70885  -1.02083
  O  -3.82090  -2.40505  -1.35713
  P  -4.75490  -1.33545  -0.64313
  H   1.37180  -1.92165  -5.82993
  H   3.03750   0.42915  -3.87853
  O   1.63320  -1.08675  -6.17383
  O   2.34250  -0.19885  -3.95733
  O   1.81110   1.40185  -5.88893
  O  -0.06960   0.11775  -4.70543
  P   1.45500   0.08295  -5.16703
  H  -1.40180   1.01615  -4.32723
  H  -2.01690   2.24645  -3.95393
  O  -2.26250   1.32575  -4.04503
  H   5.09300   0.70695   0.63997
  H   4.61550   0.12165  -0.57243
  O   4.76570   0.99555  -0.21193
  H   3.08820   3.72515   3.14317
  H   1.88710   3.01975   3.24007
  O   2.76950   2.85375   2.90817
  H  -2.07480  -4.51495   0.12077
  H  -1.83020  -5.42765   1.01207
  O  -1.80670  -4.47115   1.03867
  H  -3.12600  -3.73905  -1.37123
  H  -2.01330  -4.08785  -1.96543
  O  -2.64980  -4.56695  -1.43483
  H  -0.81530   4.30895  -3.05723
  H  -0.49260   3.86035  -4.33343
  O  -1.21640   3.74425  -3.71793
  H  -1.14910  -1.18355  -4.86863
  H  -1.76420  -2.09365  -3.98163
  O  -1.92840  -1.73925  -4.85553
  H  -0.04220   2.77125   4.47597
  H   0.44740   3.95465   4.97627
  O   0.59030   3.42975   4.18867
  H   3.06400   1.43475   4.03547
  H   2.46050   0.87215   5.23907
  O   3.26730   0.80625   4.72827
