  83
# Step 1602, RM=C5H14NO[285] (21 atoms), C5H14NO[266] d=522.037pm (21 atoms), H2O4P[122] d=488.552pm (7 atoms), H2O4P[277] d=495.488pm (7 atoms), H2O[763] d=483.619pm (3 atoms), H2O[1561] d=495.750pm (3 atoms), H2O[1179] d=511.493pm (3 atoms), H2O[1431] d=525.954pm (3 atoms), H2O[352] d=531.155pm (3 atoms), H2O[823] d=587.766pm (3 atoms), H2O[828] d=589.217pm (3 atoms), H2O[1447] d=609.305pm (3 atoms), H2O[111] d=623.065pm (3 atoms)
  C   0.20025  -0.74498   0.50464
  C   1.62675  -0.23608   0.67066
  C  -0.22835  -0.35658  -1.80424
  C  -2.00315  -0.82778  -0.24745
  C  -0.78905   1.24462  -0.19152
  H   0.27705  -1.82218   0.35663
  H  -0.14405  -0.76108   1.53871
  H   2.51575   1.43122   1.24301
  H   2.11995  -0.19238  -0.30039
  H   2.19605  -1.01898   1.17180
  H   0.15155  -1.35078  -2.03936
  H  -0.94635  -0.01638  -2.55044
  H   0.50535   0.38002  -2.13171
  H  -2.34415  -0.84158   0.78776
  H  -2.79175  -0.48908  -0.91942
  H  -1.91335  -1.89798  -0.43351
  H   0.12845   1.81482  -0.33665
  H  -1.53995   1.69422  -0.84114
  H  -1.24915   1.36692   0.78899
  N  -0.72495  -0.17588  -0.44929
  O   1.72185   0.95252   1.42593
  C   0.42025   3.93522   2.98978
  C  -0.89435   4.27922   2.28647
  C  -0.05365   2.02912   4.44148
  C   1.74525   3.60082   4.89168
  C  -0.56065   4.23252   5.22838
  H   0.89365   4.91672   2.96418
  H   1.04445   3.23902   2.42958
  H  -2.60285   3.77312   1.78726
  H  -1.04065   5.32472   2.55758
  H  -0.69335   4.29652   1.21532
  H   0.56095   1.37232   3.82598
  H  -1.04905   1.99392   3.99858
  H   0.04415   1.57102   5.42578
  H   1.87055   3.32992   5.94008
  H   2.35595   2.97442   4.24148
  H   1.98945   4.66122   4.82798
  H  -0.33975   5.29362   5.34368
  H  -0.54485   3.87542   6.25808
  H  -1.57485   4.18962   4.83118
  N   0.40695   3.44302   4.40028
  O  -2.00575   3.51402   2.47238
  H  -1.83655  -4.08568   1.46378
  H  -1.49585  -5.50398   3.36218
  O  -1.54225  -3.34068   1.95568
  O  -0.89835  -4.92388   3.79818
  O   0.58145  -2.83388   3.30248
  O  -1.72455  -2.59758   4.32918
  P  -0.91595  -3.44658   3.34008
  H   3.88985  -0.63898  -3.30614
  H   5.37205  -3.74598  -1.82658
  O   4.14785  -0.94958  -2.45728
  O   4.76605  -3.21728  -1.34000
  O   3.60025  -3.10538  -3.53638
  O   2.28155  -2.45218  -1.50161
  P   3.68235  -2.43338  -2.18261
  H  -3.26125   2.56212  -2.25257
  H  -3.95035   1.47032  -2.94738
  O  -3.92715   1.89412  -2.08944
  H  -2.04735   1.13672  -4.66023
  H  -1.47525   2.06042  -3.86650
  O  -1.16995   1.51272  -4.58969
  H  -2.48915   4.13812  -0.28310
  H  -3.85935   4.59492  -0.02945
  O  -3.26335   3.88942   0.22194
  H  -4.38775   2.56552   0.14425
  H  -4.80405   1.72292  -0.71387
  O  -4.96415   1.80572   0.22620
  H   1.70435  -1.74078   4.07148
  H   1.30675  -0.94028   5.17388
  O   2.12185  -1.21838   4.75628
  H  -0.87405  -1.47498   5.34108
  H  -0.93615  -0.72048   6.44738
  O  -0.26505  -0.88498   5.78498
  H  -5.27445  -2.90458  -0.67821
  H  -5.80945  -1.67658  -0.97217
  O  -5.48055  -2.11058  -0.18492
  H  -0.02035   5.71602  -0.21975
  H   0.44815   6.63832   0.68925
  O   0.83905   6.02692   0.06503
  H   4.70495  -0.55918   4.94298
  H   3.35725  -0.24058   4.68148
  O   4.21225   0.17812   4.58248
