  83
# Step 5215, RM=C5H14NO[279] (21 atoms), C5H14NO[219] d=621.691pm (21 atoms), H2O4P[97] d=481.806pm (7 atoms), H2O4P[18] d=492.526pm (7 atoms), H2O[1091] d=454.250pm (3 atoms), H2O[691] d=459.821pm (3 atoms), H2O[238] d=487.743pm (3 atoms), H2O[24] d=493.308pm (3 atoms), H2O[1495] d=499.654pm (3 atoms), H2O[1149] d=520.751pm (3 atoms), H2O[275] d=581.229pm (3 atoms), H2O[347] d=589.383pm (3 atoms), H2O[1346] d=593.385pm (3 atoms)
  C  -0.23551  -0.95640  -0.19735
  C   1.17369  -1.51501   0.18266
  C  -0.21641   0.90671   1.35512
  C  -0.17281   1.36402  -0.88564
  C  -2.15271   0.50605   0.00412
  H  -0.92511  -1.63396   0.30599
  H  -0.52301  -1.10419  -1.23832
  H   2.32789  -1.23954  -1.21370
  H   1.41429  -1.43597   1.24283
  H   1.29329  -2.56352  -0.09016
  H  -0.65341   1.88716   1.54454
  H   0.82219   1.23682   1.37281
  H  -0.38091   0.33345   2.26751
  H   0.91219   1.38505  -0.98771
  H  -0.55471   2.37273  -0.72809
  H  -0.31941   1.23523  -1.95803
  H  -2.45601   0.40942  -1.03834
  H  -2.54291  -0.32935   0.58544
  H  -2.60081   1.45281   0.30568
  N  -0.66941   0.41906   0.11864
  O   2.05369  -0.72248  -0.47173
  C   6.73324   0.96808   1.88094
  C   6.86210   1.20928   3.43621
  C   5.48586   0.26316  -0.12132
  C   5.05533  -0.77745   1.90558
  C   4.34206   1.42691   1.59542
  H   6.93079   1.94969   1.45022
  H   7.51666   0.26512   1.59774
  H   6.93263   0.38393   5.09771
  H   7.83013   1.69094   3.57411
  H   6.09234   1.88193   3.81451
  H   4.54898   0.08053  -0.64763
  H   5.84442   1.18635  -0.57658
  H   6.19931  -0.54599  -0.27735
  H   4.66953  -0.60873   2.91101
  H   5.90140  -1.46294   1.95422
  H   4.19667  -1.23629   1.41540
  H   3.39616   1.07394   1.18461
  H   4.60417   2.39005   1.15751
  H   4.18801   1.69452   2.64081
  N   5.41586   0.47426   1.35413
  O   6.91812   0.03594   4.21921
  H   0.24589  -3.62025   3.25161
  H  -1.91491  -1.42445   4.79271
  O  -0.22701  -2.87505   2.92811
  O  -1.93921  -2.36375   4.82211
  O  -2.19961  -4.37795   3.49791
  O  -2.70871  -2.19325   2.39721
  P  -1.72041  -2.89065   3.38151
  H  -4.17331  -3.76235  -3.18055
  H  -0.47471  -2.59945  -2.62027
  O  -3.36151  -4.20605  -3.34691
  O  -0.92991  -3.34855  -2.95975
  O  -2.77341  -2.42245  -1.67406
  O  -2.10991  -4.82985  -1.18155
  P  -2.27111  -3.73815  -2.29982
  H   3.24339  -1.91565  -3.11357
  H   3.84179  -2.75825  -2.24984
  O   2.95249  -2.41955  -2.35350
  H  -0.22657   4.39044  -0.35862
  H   1.13739   4.24653  -0.33916
  O   0.48373   4.50006  -0.99083
  H  -0.41781   5.03469   1.78406
  H  -1.35471   3.96981   2.00201
  O  -1.09601   4.56507   1.29850
  H   0.19499   0.82993   5.29581
  H  -1.16871   0.95322   5.29691
  O  -0.45931   1.20190   4.70441
  H  -1.15751   2.42725   3.91391
  H  -2.07241   3.47265   4.08451
  O  -1.34511   3.26815   3.49691
  H  -5.00161  -0.73665  -0.80641
  H  -4.21251  -1.82785  -0.82608
  O  -5.00171  -1.57615  -0.34650
  H  -5.77641   1.29535  -1.39822
  H  -5.41391   1.10135  -2.69529
  O  -5.43061   0.56095  -1.90541
  H  -3.58991  -3.69005   1.17167
  H  -3.41151  -4.32695  -0.05072
  O  -4.09101  -4.29305   0.62262
  H  -5.32261  -1.38425   1.19801
  H  -4.48541  -1.66495   2.26021
  O  -5.41111  -1.44865   2.14891
