  83
# Step 9444, RM=C5H14NO[219] (21 atoms), C5H14NO[209] d=530.253pm (21 atoms), H2O4P[141] d=488.633pm (7 atoms), H2O4P[205] d=535.793pm (7 atoms), H2O[374] d=443.902pm (3 atoms), H2O[544] d=468.493pm (3 atoms), H2O[427] d=470.080pm (3 atoms), H2O[1255] d=481.175pm (3 atoms), H2O[488] d=505.924pm (3 atoms), H2O[1189] d=535.564pm (3 atoms), H2O[624] d=550.242pm (3 atoms), H2O[1091] d=554.772pm (3 atoms), H2O[1061] d=579.007pm (3 atoms)
  C   0.79281   0.67880  -0.05240
  C   0.56108   1.11172   1.34700
  C   0.20687  -0.42591  -2.17427
  C  -0.34540  -1.62477  -0.15240
  C  -1.52326   0.39576  -0.73629
  H   0.86822   1.59862  -0.63233
  H   1.79280   0.24547  -0.07110
  H   0.14076   0.41910   3.03100
  H   1.38389   1.80603   1.51740
  H  -0.36036   1.67607   1.49040
  H  -0.60942  -0.91170  -2.70884
  H   0.42446   0.51260  -2.68413
  H   1.07284  -1.08737  -2.20011
  H  -0.82898  -1.60671   0.82430
  H   0.67575  -1.99118  -0.04710
  H  -0.90598  -2.25216  -0.84543
  H  -2.29729  -0.16063  -1.26488
  H  -1.56501   1.37963  -1.20358
  H  -1.98207   0.59169   0.23280
  N  -0.25239  -0.21060  -0.75642
  O   0.59009   0.06876   2.27710
  C   5.40493  -2.35177   2.34680
  C   4.89999  -1.95997   3.75890
  C   5.59664  -2.09137   0.05260
  C   3.38514  -2.18467   0.93750
  C   4.66528  -0.25057   1.35210
  H   5.34202  -3.43027   2.20200
  H   6.47641  -2.16057   2.40590
  H   3.27108  -1.88267   4.72910
  H   5.02829  -0.89417   3.94790
  H   5.43323  -2.55157   4.50310
  H   5.31021  -1.67917  -0.91496
  H   6.60589  -1.80137   0.34490
  H   5.61709  -3.16497  -0.13450
  H   2.62299  -1.78597   1.60700
  H   3.04927  -1.99067  -0.08120
  H   3.28554  -3.26687   1.02170
  H   3.90181   0.03283   2.07670
  H   4.38983   0.18563   0.39190
  H   5.60960   0.22803   1.61170
  N   4.73736  -1.71827   1.21450
  O   3.51791  -2.20127   3.87430
  H  -3.40061   2.79119   1.89990
  H  -1.68851   4.50489  -0.63536
  O  -3.74471   2.50652   1.07280
  O  -1.88721   3.97257   0.11350
  O  -4.24691   4.81115   0.10750
  O  -3.59541   2.96705  -1.37076
  P  -3.34751   3.55210   0.03750
  H  -4.26971  -2.03871   1.13170
  H  -3.92851   0.91717   2.59910
  O  -3.62811  -1.71194   1.73610
  O  -3.84831   0.34699   3.34210
  O  -5.84701  -1.19291   2.83610
  O  -3.98001  -2.14932   4.13090
  P  -4.28271  -1.14652   2.95690
  H   0.85650  -3.72427  -2.52086
  H   2.13636  -3.27197  -2.15721
  O   1.44436  -3.80817  -1.77012
  H   2.21355   2.92862  -2.94726
  H   3.19581   2.46767  -2.16350
  O   2.84599   2.21355  -3.01748
  H   1.12668   4.25676  -0.84472
  H   2.28844   3.77937  -0.35951
  O   1.65991   4.44138  -0.07150
  H   4.76998   2.75140  -0.81579
  H   4.09792   2.94350   0.34060
  O   3.84764   2.73818  -0.56017
  H   3.61303  -1.52457  -3.29103
  H   3.98173  -2.89317  -3.26959
  O   3.23088  -2.35727  -3.01404
  H   1.80666   4.31971   1.82010
  H   2.70567   3.92310   2.87110
  O   1.80522   4.23274   2.77340
  H   3.52061   0.76613  -3.49060
  H   4.74750   0.37833  -3.70638
  O   3.89603  -0.01797  -3.89111
  H  -2.87221  -2.80347  -4.83738
  H  -1.80901  -3.11377  -3.94801
  O  -2.71751  -2.81737  -3.89285
  H   1.74825  -4.76797  -0.45186
  H   2.99986  -5.21527  -0.27590
  O   2.15499  -5.41057   0.12940
