  83
# Step 1383, RM=C5H14NO[260] (21 atoms), C5H14NO[14] d=570.795pm (21 atoms), H2O4P[206] d=505.994pm (7 atoms), H2O4P[94] d=511.378pm (7 atoms), H2O[229] d=365.241pm (3 atoms), H2O[494] d=412.598pm (3 atoms), H2O[997] d=429.842pm (3 atoms), H2O[23] d=442.033pm (3 atoms), H2O[1288] d=480.700pm (3 atoms), H2O[1622] d=484.792pm (3 atoms), H2O[1647] d=511.120pm (3 atoms), H2O[803] d=521.185pm (3 atoms), H2O[1408] d=546.384pm (3 atoms)
  C   0.08925  -0.93866   0.33052
  C  -0.82127  -1.48777  -0.80238
  C   1.16444   0.69240  -0.92898
  C  -0.52915   1.41491   0.68012
  C   1.64426   0.60999   1.36392
  H  -0.27537  -1.27664   1.30062
  H   0.98500  -1.55878   0.29602
  H  -2.32634  -0.72859  -0.10588
  H  -0.20189  -1.53404  -1.69808
  H  -1.10896  -2.49435  -0.49888
  H   1.52503   1.72049  -0.89568
  H   0.42472   0.64730  -1.72828
  H   1.94640   0.04963  -1.33328
  H  -1.07004   1.02518   1.54242
  H  -1.20322   1.50839  -0.17138
  H  -0.28091   2.47181   0.77732
  H   1.30596   0.24314   2.33302
  H   2.51291  -0.02120   1.17652
  H   1.96947   1.63038   1.56682
  N   0.60018   0.42433   0.37542
  O  -1.95196  -0.69587  -0.97288
  C   0.21474   2.21073   5.31102
  C  -1.27426   1.60186   5.17222
  C  -0.48846   4.47793   5.68782
  C   0.21324   3.86531   3.47902
  C   1.75564   3.89329   5.27142
  H   0.50464   1.99006   6.33842
  H   0.88154   1.53664   4.77332
  H  -2.93416   1.59307   4.15382
  H  -1.84746   2.04751   5.98512
  H  -1.23566   0.54602   5.44022
  H  -0.57566   4.33610   6.76512
  H  -1.56316   4.37480   5.53732
  H  -0.17416   5.52047   5.73672
  H   0.42684   4.89024   3.17572
  H   0.86644   3.25987   2.85062
  H  -0.82646   3.72355   3.18422
  H   1.84304   3.91940   6.35762
  H   2.58614   3.29470   4.89722
  H   1.98764   4.91333   4.96512
  N   0.36084   3.59922   4.92962
  O  -2.02806   1.75805   3.94242
  H  -2.25483   0.40942  -2.82848
  H  -2.03848  -0.10150  -5.97318
  O  -2.57208   1.04864  -3.44038
  O  -2.19233   0.82577  -5.96398
  O  -0.24318   0.71559  -4.35938
  O  -1.30474   2.84065  -4.70448
  P  -1.62743   1.33187  -4.61538
  H  -1.29472   6.08622  -0.12218
  H   1.10594   6.43679  -2.15868
  O  -0.81198   5.32187   0.13542
  O   1.13999   6.37166  -1.22148
  O   1.41769   4.34198   0.36672
  O   0.18718   4.05489  -1.83418
  P   0.46077   5.02857  -0.66068
  H  -3.06116  -1.43867   2.05222
  H  -3.95786  -0.43977   1.99952
  O  -3.20226  -0.69284   1.46912
  H   3.29935  -1.78687  -1.39348
  H   3.66309  -2.34677  -0.11848
  O   3.78791  -1.53487  -0.60988
  H   0.92274  -3.87117   1.60462
  H   1.70327  -4.24037   0.57682
  O   0.75821  -4.16417   0.70832
  H   1.87389  -2.12447  -3.41188
  H   2.28684  -3.37687  -2.93608
  O   2.42994  -2.45837  -2.70788
  H   3.89695   2.92522  -0.98958
  H   2.95313   3.39016  -0.03228
  O   3.80985   2.96326  -0.03708
  H   1.00932   3.35154  -3.10308
  H   0.90640   2.33724  -3.97118
  O   1.63773   2.84043  -3.61308
  H   0.53885  -4.75247  -1.94448
  H   0.14311  -4.70837  -0.55088
  O  -0.22728  -4.94077  -1.40238
  H   0.25224  -2.01698  -5.19058
  H   0.67404  -0.75097  -4.65288
  O   1.05124  -1.60585  -4.86068
  H   4.30569  -4.29487   0.67492
  H   3.60185  -4.84037  -0.35728
  O   3.45611  -4.12897   0.26632
