  83
# Step 743, RM=C5H14NO[220] (21 atoms), C5H14NO[35] d=578.743pm (21 atoms), H2O4P[250] d=535.588pm (7 atoms), H2O4P[107] d=555.982pm (7 atoms), H2O[876] d=370.586pm (3 atoms), H2O[980] d=380.694pm (3 atoms), H2O[1575] d=423.793pm (3 atoms), H2O[862] d=426.359pm (3 atoms), H2O[923] d=455.915pm (3 atoms), H2O[654] d=479.569pm (3 atoms), H2O[1018] d=534.983pm (3 atoms), H2O[1414] d=547.902pm (3 atoms), H2O[1287] d=570.218pm (3 atoms)
  C  -0.33385   0.04148   0.98203
  C   0.53135  -1.19662   1.26833
  C  -0.53415  -0.02112  -1.53877
  C   1.20475   1.14348  -0.48327
  C  -1.07305   1.90608  -0.42317
  H  -0.26185   0.72668   1.82673
  H  -1.34245  -0.32362   1.17553
  H   1.10975  -2.84092   0.56013
  H   1.57205  -0.94942   1.05903
  H   0.62165  -1.47152   2.31923
  H   0.01805  -0.92922  -1.78077
  H  -1.51475  -0.49672  -1.55387
  H  -0.45485   0.60418  -2.42807
  H   1.90305   0.39808  -0.86397
  H   1.59365   1.54518   0.45233
  H   1.29055   2.07128  -1.04887
  H  -1.02415   2.23288  -1.46187
  H  -2.09425   1.66598  -0.12727
  H  -0.70895   2.63318   0.30263
  N  -0.21025   0.74578  -0.32907
  O   0.29335  -2.36572   0.53323
  C  -6.06825   1.74308   1.00783
  C  -5.42425   0.93368  -0.11717
  C  -6.37405   3.81538   2.10993
  C  -4.76385   3.72428   0.34503
  C  -4.38885   2.65548   2.56293
  H  -6.28425   1.08308   1.84803
  H  -7.02905   2.13728   0.67693
  H  -4.31535  -0.32442   0.78833
  H  -5.42745   1.54718  -1.01817
  H  -6.07415   0.06118  -0.18367
  H  -7.03685   4.22098   1.34563
  H  -6.94475   3.27518   2.86533
  H  -5.91685   4.68448   2.58283
  H  -4.37425   4.70888   0.60343
  H  -5.57725   3.96658  -0.33897
  H  -3.88485   3.27968  -0.12167
  H  -4.75235   2.26078   3.51173
  H  -3.70895   1.89138   2.18593
  H  -3.74155   3.51578   2.73353
  N  -5.39195   2.95338   1.46923
  O  -4.14645   0.39178   0.19543
  H  -2.32905  -2.68552   3.04453
  H  -2.23235   0.94358   4.56243
  O  -1.97545  -2.41112   3.87113
  O  -2.05715   0.26298   3.93823
  O  -3.88485  -1.14522   4.97303
  O  -1.64695  -1.13852   6.04913
  P  -2.35335  -1.09972   4.65373
  H   0.35195  -4.11972  -5.75117
  H  -1.56175  -3.37552  -3.39387
  O  -0.10595  -4.57942  -5.07107
  O  -0.78035  -3.44762  -2.87647
  O   0.69715  -5.48262  -2.72487
  O   1.65735  -3.29292  -3.68457
  P   0.36235  -4.22542  -3.64537
  H   1.34755   1.42988   3.78093
  H   1.52795   2.17888   2.62873
  O   1.78665   1.31108   2.93883
  H   3.04895  -2.56702  -0.55787
  H   4.05005  -1.61512  -0.10087
  O   3.31055  -1.65842  -0.70707
  H   2.17195  -1.85712  -3.40287
  H   2.74505  -1.41202  -2.26407
  O   2.65845  -1.07112  -3.15437
  H   4.06135   0.06628   1.42603
  H   3.09825   1.04228   2.02213
  O   3.90045   1.00688   1.50113
  H   0.34475   4.60548   1.92803
  H   0.28225   3.69968   2.86553
  O   0.91435   3.87468   2.16833
  H   2.78475  -4.60062   0.28043
  H   3.44975  -3.90672   1.39143
  O   2.73375  -3.77912   0.76893
  H  -1.47645   3.22368   4.62013
  H  -0.17545   2.89118   4.81003
  O  -0.67405   3.30338   4.10443
  H   4.88035  -2.27122   1.75963
  H   5.83385  -1.32202   1.83573
  O   5.06365  -1.46062   1.28453
  H   2.32835   4.18378   1.62733
  H   2.90065   5.09428   0.85343
  O   3.22865   4.49048   1.51983
