  83
# Step 7025, RM=C5H14NO[66] (21 atoms), C5H14NO[140] d=593.454pm (21 atoms), H2O4P[64] d=554.279pm (7 atoms), H2O4P[178] d=601.634pm (7 atoms), H2O[1490] d=407.446pm (3 atoms), H2O[389] d=451.127pm (3 atoms), H2O[1185] d=458.885pm (3 atoms), H2O[215] d=467.626pm (3 atoms), H2O[957] d=473.588pm (3 atoms), H2O[1484] d=474.255pm (3 atoms), H2O[19] d=485.571pm (3 atoms), H2O[1074] d=490.516pm (3 atoms), H2O[1355] d=503.430pm (3 atoms)
  C   0.59592  -0.70279  -0.52914
  C  -0.36818  -1.82489  -0.00212
  C  -0.93008   1.25481  -0.08039
  C   1.29442   1.52801  -0.81002
  C   0.90352   0.84771   1.50295
  H   0.27162  -0.67889  -1.56951
  H   1.61272  -1.09479  -0.55024
  H  -2.13678  -2.35199   0.23788
  H  -0.13538  -1.86549   1.06195
  H  -0.14738  -2.82549  -0.37389
  H  -1.41328   0.95131  -1.00909
  H  -0.96028   2.34181  -0.00459
  H  -1.60288   0.86021   0.68103
  H   2.29852   1.10401  -0.81088
  H   1.42622   2.57271  -0.52855
  H   1.07732   1.49231  -1.87758
  H   0.21952   0.34991   2.19025
  H   0.93732   1.87471   1.86635
  H   1.91882   0.56531   1.78155
  N   0.43862   0.66541   0.06404
  O  -1.71878  -1.61809  -0.18606
  C   0.47532  -2.70009   6.09405
  C  -0.02098  -3.13289   4.72605
  C   1.15102  -0.33549   5.66055
  C   2.71062  -2.13369   5.07965
  C   2.10022  -1.65029   7.38255
  H  -0.33378  -2.18369   6.61075
  H   0.68412  -3.55109   6.74225
  H  -1.19638  -2.07209   3.60475
  H  -0.92748  -3.66969   5.00555
  H   0.65572  -3.81409   4.21005
  H   0.74272  -0.33049   4.64995
  H   2.01542   0.32701   5.61525
  H   0.51302   0.11891   6.41865
  H   3.29522  -2.95299   5.49795
  H   2.46252  -2.34599   4.03975
  H   3.38052  -1.29269   4.90025
  H   2.38762  -2.63549   7.74975
  H   1.32852  -1.26649   8.04985
  H   2.94122  -0.96339   7.47745
  N   1.60922  -1.72289   6.00935
  O  -0.26398  -2.20969   3.67285
  H  -4.98318   2.11581   0.35628
  H  -3.89918   0.80091   3.94025
  O  -4.79578   1.40461   0.94166
  O  -4.64878   0.67651   3.38695
  O  -5.77798   2.84541   2.85175
  O  -3.30648   2.61391   2.47725
  P  -4.64988   1.86231   2.38425
  H  -2.44618  -1.62129  -6.43212
  H  -0.27098  -2.78879  -5.35511
  O  -1.70158  -1.27449  -6.88911
  O   0.08542  -1.91959  -5.32213
  O  -1.39118   0.09161  -4.80635
  O   0.27042   0.26501  -6.67793
  P  -0.68658  -0.75539  -5.93777
  H  -0.99128   1.25501  -3.92014
  H  -0.08008   2.32691  -3.71880
  O  -0.92898   2.04281  -3.38001
  H   2.47552  -4.02109   2.49825
  H   1.59802  -4.10379   1.39085
  O   2.18202  -3.45539   1.78405
  H  -2.64508  -0.79889  -3.54140
  H  -2.79478  -1.43919  -2.21668
  O  -3.07548  -1.54599  -3.12556
  H   3.45592  -2.56879   1.02234
  H   4.17802  -1.36399   1.04205
  O   4.15662  -2.16149   0.51318
  H   4.95262   0.42391   1.43895
  H   4.11062   0.69851   2.46535
  O   4.29762  -0.07239   1.92965
  H  -2.13138   2.59321  -2.60081
  H  -2.69188   3.75211  -2.79353
  O  -2.90508   3.01261  -2.22437
  H   2.91232   4.04911   0.73508
  H   2.77232   3.32231   1.96645
  O   2.31512   4.00971   1.48205
  H  -2.37228  -4.62189   1.82565
  H  -2.70638  -3.31879   2.31675
  O  -2.69298  -3.78789   1.48255
  H  -2.17048   2.08171   3.77935
  H  -0.83208   2.00961   4.36155
  O  -1.70358   1.63341   4.48455
