  83
# Step 235, RM=C5H14NO[137] (21 atoms), C5H14NO[32] d=546.695pm (21 atoms), H2O4P[70] d=481.896pm (7 atoms), H2O4P[40] d=487.190pm (7 atoms), H2O[886] d=351.446pm (3 atoms), H2O[1304] d=464.210pm (3 atoms), H2O[947] d=465.719pm (3 atoms), H2O[988] d=515.031pm (3 atoms), H2O[257] d=531.515pm (3 atoms), H2O[112] d=538.774pm (3 atoms), H2O[1650] d=590.690pm (3 atoms), H2O[460] d=624.279pm (3 atoms), H2O[568] d=662.010pm (3 atoms)
  C  -0.98618  -0.17321   0.10586
  C  -0.71918  -1.73041  -0.04114
  C   0.58742   0.59469  -1.47754
  C  -0.52788   2.12259  -0.13464
  C   1.16002   0.76519   0.82216
  H  -1.86858  -0.03381  -0.51874
  H  -1.31588  -0.06901   1.13956
  H   1.11802  -2.18031   0.37256
  H  -1.60968  -2.27131   0.27886
  H  -0.52608  -2.05841  -1.06254
  H   1.41422   1.26789  -1.70434
  H  -0.16758   0.59649  -2.26374
  H   0.88742  -0.35811  -1.91364
  H   0.22102   2.83609  -0.47864
  H  -1.08088   2.40099   0.76246
  H  -1.35468   2.36969  -0.80054
  H   1.64622  -0.20881   0.87806
  H   1.91982   1.48419   0.51576
  H   0.77822   1.01339   1.81246
  N   0.04852   0.79289  -0.16414
  O   0.31832  -2.18111   0.87606
  C   2.90982  -2.46081   5.22566
  C   3.87082  -1.32751   4.69096
  C   1.45702  -4.36141   4.72976
  C   0.84492  -2.34071   3.92416
  C   2.80172  -3.37421   2.98976
  H   3.51642  -3.24361   5.68126
  H   2.33682  -1.89071   5.95696
  H   3.81372   0.21929   3.61676
  H   4.60222  -1.72321   3.98616
  H   4.29902  -0.83731   5.56526
  H   0.88782  -5.01551   4.06926
  H   2.28792  -5.02971   4.95576
  H   0.98352  -4.30711   5.70996
  H   0.15062  -3.02291   3.43366
  H   0.29882  -1.93001   4.77336
  H   1.00572  -1.51731   3.22836
  H   3.23782  -2.52071   2.47076
  H   3.40832  -4.27851   3.03906
  H   2.11662  -3.73581   2.22296
  N   2.06242  -3.07221   4.22146
  O   3.14002  -0.31051   4.01496
  H  -2.03398  -2.57947  -3.94954
  H  -3.93238  -0.10534  -5.44384
  O  -2.60958  -2.19474  -3.31364
  O  -4.10648  -0.70572  -4.74184
  O  -1.79438   0.01628  -4.32364
  O  -3.44528   0.03804  -2.35394
  P  -3.00128  -0.74357  -3.68484
  H  -2.52818  -1.74555   3.40536
  H  -1.17858   1.65178   3.45106
  O  -2.49388  -1.33254   4.24906
  O  -1.27868   0.80305   3.84256
  O  -3.59228   0.52173   2.92676
  O  -3.18618   0.79615   5.44506
  P  -2.64488   0.20436   4.11236
  H   2.43772  -2.65271  -1.69244
  H   3.17722  -2.14081  -0.67134
  O   2.29292  -2.49631  -0.75924
  H  -3.41958   1.97130   2.29276
  H  -3.81208   2.48413   0.99426
  O  -3.31188   2.76066   1.76216
  H  -4.22558   2.81574  -1.24674
  H  -3.83268   1.44804  -1.31194
  O  -4.11168   2.07808  -0.64754
  H  -2.13718   4.18956   1.66566
  H  -1.23048   4.96065   0.90576
  O  -1.31548   4.65882   1.81016
  H   3.28632  -3.86441  -3.29344
  H   2.39472  -3.00201  -3.99804
  O   2.92202  -2.98421  -3.19934
  H  -2.13458   4.73505  -1.41244
  H  -1.40528   5.88643  -1.22694
  O  -1.52918   5.06630  -0.74914
  H   5.54812   0.84017   1.99006
  H   5.77372   1.50295   3.18176
  O   5.04782   1.02054   2.78596
  H  -0.20538  -1.07627  -6.35934
  H  -0.56068  -0.09682  -5.53984
  O   0.04822  -0.15704  -6.27594
  H   0.79272  -3.31511  -5.46614
  H   1.88502  -3.53561  -6.27934
  O   1.73302  -3.44071  -5.33904
