  83
# Step 1212, RM=C5H14NO[107] (21 atoms), C5H14NO[320] d=595.605pm (21 atoms), H2O4P[5] d=525.682pm (7 atoms), H2O4P[303] d=532.402pm (7 atoms), H2O[200] d=404.165pm (3 atoms), H2O[266] d=420.358pm (3 atoms), H2O[1316] d=453.643pm (3 atoms), H2O[149] d=469.944pm (3 atoms), H2O[1516] d=474.052pm (3 atoms), H2O[1013] d=514.877pm (3 atoms), H2O[711] d=532.244pm (3 atoms), H2O[623] d=546.413pm (3 atoms), H2O[500] d=568.890pm (3 atoms)
  C  -0.52164  -0.23270   0.84297
  C  -1.61573   0.62486   0.28817
  C   0.15767  -1.11907  -1.37533
  C   1.39187  -1.50232   0.62677
  C   1.37767   0.61272  -0.27983
  H  -0.95452  -1.16411   1.20787
  H  -0.22316   0.29827   1.74687
  H  -2.01662   2.32465  -0.35003
  H  -2.45280   0.69022   0.98327
  H  -2.04825   0.19861  -0.61703
  H   0.99087  -1.25014  -2.06573
  H  -0.30131  -2.10337  -1.28263
  H  -0.58200  -0.54958  -1.93813
  H   1.01237  -2.51602   0.75527
  H   1.75217  -1.17826   1.60317
  H   2.24807  -1.75391   0.00097
  H   1.56187   1.11838   0.66807
  H   2.33107   0.48016  -0.79113
  H   0.94627   1.27523  -1.03023
  N   0.56917  -0.55756  -0.04893
  O  -1.23388   1.96181   0.03557
  C   2.97387   0.58346   5.48077
  C   2.83277   0.33728   3.93987
  C   0.68917   0.00914   6.15377
  C   1.38177   2.22203   6.18597
  C   2.20767   0.57611   7.79227
  H   3.35697  -0.38211   5.81097
  H   3.80507   1.26350   5.66757
  H   2.56367   1.78946   2.62907
  H   3.78417   0.24086   3.41687
  H   2.52227  -0.70262   3.83837
  H  -0.12651   0.25788   6.83267
  H   0.27047   0.22261   5.17027
  H   0.92837  -1.04593   6.28677
  H   2.17967   2.88296   6.52457
  H   1.04877   2.41001   5.16527
  H   0.47507   2.53565   6.70317
  H   2.34947  -0.49968   7.89567
  H   1.45847   0.76475   8.56117
  H   3.14027   1.07950   8.04717
  N   1.86467   0.85125   6.37317
  O   2.05927   1.19409   3.16217
  H  -1.96531  -1.97144   3.65517
  H   1.40327  -3.93864   4.60407
  O  -1.09603  -1.88274   4.00167
  O   1.09667  -3.19204   4.12227
  O  -0.96154  -4.00474   5.34217
  O  -0.77562  -4.11464   2.80197
  P  -0.45143  -3.27814   4.10617
  H   0.28717   2.28187  -5.12603
  H   3.20997   0.48675  -4.07303
  O   0.70187   1.49243  -4.82883
  O   2.71647   0.97300  -3.43773
  O   3.08327   1.95922  -5.74303
  O   2.09097   3.34594  -3.88043
  P   2.13247   1.91969  -4.49353
  H  -1.75166  -4.01364   0.13787
  H  -1.57232  -3.52454   1.31887
  O  -2.19796  -3.32024   0.62387
  H  -3.58400   0.42422  -2.32663
  H  -2.82927   1.59750  -2.35963
  O  -2.94275   0.82503  -2.91343
  H  -2.26961  -0.70364  -3.38693
  H  -2.41251  -1.33974  -4.54103
  O  -2.08278  -1.59564  -3.67963
  H  -4.03811   3.38904  -0.85953
  H  -3.16809   3.72109  -1.95753
  O  -3.22889   3.06975  -1.25883
  H  -0.76511  -4.59624  -1.41813
  H   0.42417  -4.41044  -0.92023
  O  -0.40191  -4.70904  -0.53973
  H  -1.69988  -3.20384  -3.11553
  H  -0.73398  -3.94244  -3.39613
  O  -1.47900  -4.08444  -2.81213
  H  -5.82226  -0.05444  -2.19473
  H  -5.15336   0.58906  -1.12523
  O  -4.96469  -0.09174  -1.77113
  H   4.66097   2.39065  -0.24063
  H   4.00067   3.44023   0.53937
  O   4.38297   3.30250  -0.32733
  H  -6.31820   1.40256   0.72937
  H  -5.36149   2.34998   0.30917
  O  -5.44507   1.39684   0.33717
