  83
# Step 2501, RM=C5H14NO[343] (21 atoms), C5H14NO[243] d=577.759pm (21 atoms), H2O4P[169] d=520.136pm (7 atoms), H2O4P[339] d=536.139pm (7 atoms), H2O[551] d=404.745pm (3 atoms), H2O[1027] d=417.593pm (3 atoms), H2O[284] d=418.644pm (3 atoms), H2O[1470] d=455.929pm (3 atoms), H2O[616] d=456.336pm (3 atoms), H2O[647] d=458.523pm (3 atoms), H2O[838] d=480.663pm (3 atoms), H2O[1510] d=489.219pm (3 atoms), H2O[1049] d=511.518pm (3 atoms)
  C  -0.44421  -0.48341  -0.81635
  C   0.46079   0.34109  -1.73565
  C  -0.92631   1.21329   0.70885
  C   0.79709  -0.35631   1.34005
  C  -1.42209  -1.08511   1.24525
  H  -1.46616  -0.38041  -1.18125
  H  -0.10361  -1.47681  -1.10855
  H   2.34389   0.81359  -1.90005
  H   0.44399  -0.04291  -2.75565
  H   0.12219   1.37649  -1.77105
  H  -1.40043   1.41639   1.66915
  H  -0.16021   1.98839   0.68925
  H  -1.52442   1.57859  -0.12585
  H   1.20689  -1.33741   1.10005
  H   0.59819  -0.40661   2.41055
  H   1.55419   0.40829   1.16585
  H  -1.14813  -2.13481   1.13915
  H  -2.44862  -0.93971   0.90885
  H  -1.39472  -0.92591   2.32325
  N  -0.47221  -0.19241   0.59065
  O   1.77829   0.45049  -1.23575
  C   5.25839  -3.80271  -2.03075
  C   4.52499  -5.09721  -2.44525
  C   3.80969  -2.84051  -0.23945
  C   5.22739  -1.51261  -1.50815
  C   3.36359  -2.45301  -2.60235
  H   5.92559  -3.43411  -2.80995
  H   6.00679  -4.02051  -1.26885
  H   3.15339  -6.37721  -1.88925
  H   5.25089  -5.83941  -2.77725
  H   3.85489  -4.95851  -3.29365
  H   4.52099  -3.18361   0.51195
  H   3.11979  -3.68261  -0.18485
  H   3.17509  -2.00721   0.06235
  H   4.68879  -0.58801  -1.30005
  H   5.74199  -1.27221  -2.43845
  H   5.97399  -1.65881  -0.72755
  H   2.60039  -3.22981  -2.65015
  H   3.76919  -2.31721  -3.60495
  H   2.88779  -1.48901  -2.42215
  N   4.38239  -2.73731  -1.58505
  O   3.62839  -5.66041  -1.49735
  H   0.46059  -4.55961   1.57125
  H   1.92429  -4.55901   5.25405
  O   1.35039  -4.55711   1.87435
  O   2.03969  -4.74741   4.34035
  O   0.23769  -2.90111   3.58775
  O   2.77089  -2.76001   3.00035
  P   1.61189  -3.74821   3.24705
  H  -1.39879  -4.98241   0.12875
  H  -0.07411  -3.84581  -3.45835
  O  -0.71241  -4.61561  -0.39845
  O  -0.71061  -3.71071  -2.77985
  O  -2.03361  -5.75441  -2.09815
  O   0.44669  -5.89401  -2.14535
  P  -0.73061  -4.96611  -1.88265
  H  -4.54776   0.33229   0.36785
  H  -3.89604  -0.64251  -0.26775
  O  -3.99854   0.29769  -0.41535
  H   0.75899   4.59519  -1.37255
  H   1.15439   3.99109  -0.23365
  O   0.32279   4.07099  -0.70085
  H  -2.67801   1.63299  -2.89055
  H  -3.40390   1.50119  -1.66945
  O  -2.89840   2.17089  -2.13005
  H  -1.27734   0.80899   4.24305
  H  -2.07531   1.97259   4.44255
  O  -1.27110   1.73039   3.98345
  H   3.89489   0.94679   1.26255
  H   5.03629   1.81329   1.02875
  O   4.11599   1.74079   0.77585
  H   3.37099  -1.15471   2.64705
  H   3.86519   0.04719   3.14135
  O   3.92319  -0.44371   2.32165
  H  -0.92561  -1.16291   5.50015
  H  -0.26991  -1.47821   4.27375
  O  -0.76211  -0.74981   4.65225
  H   3.21799   3.20049   0.51945
  H   2.60339   4.08159   1.27875
  O   2.78599   4.03559   0.34025
  H  -1.37408   4.23319  -0.96585
  H  -2.46641   3.67089  -1.60745
  O  -2.26233   4.50889  -1.19215
