  83
# Step 2434, RM=C5H14NO[152] (21 atoms), C5H14NO[252] d=563.369pm (21 atoms), H2O4P[84] d=517.737pm (7 atoms), H2O4P[181] d=540.671pm (7 atoms), H2O[1325] d=391.517pm (3 atoms), H2O[1245] d=419.299pm (3 atoms), H2O[251] d=422.635pm (3 atoms), H2O[557] d=423.022pm (3 atoms), H2O[709] d=440.414pm (3 atoms), H2O[1300] d=458.231pm (3 atoms), H2O[369] d=463.873pm (3 atoms), H2O[808] d=470.443pm (3 atoms), H2O[1663] d=505.025pm (3 atoms)
  C  -0.75943  -0.70771   0.24576
  C  -1.81173   0.44249  -0.05504
  C   1.47367  -1.66251   0.09036
  C   1.26087   0.64579   0.70286
  C   0.83297  -0.05171  -1.54714
  H  -0.87713  -1.08301   1.26226
  H  -1.01873  -1.54541  -0.40174
  H  -1.96698   1.50709   1.47316
  H  -1.70923   0.69459  -1.11044
  H  -2.85563   0.13999   0.02796
  H   1.76627  -1.94921   1.10046
  H   2.47617  -1.55161  -0.32284
  H   0.97507  -2.55051  -0.29824
  H   2.32947   0.68339   0.49106
  H   0.83547   1.63799   0.55226
  H   1.05717   0.35699   1.73396
  H   0.44127   0.90339  -1.89714
  H   1.89727  -0.05681  -1.78204
  H   0.47917  -0.87741  -2.16454
  N   0.67767  -0.43101  -0.12474
  O  -1.58250   1.61099   0.61616
  C   0.15407   4.66779   2.42996
  C   1.31487   4.65709   1.50426
  C  -1.71410   5.38119   0.98216
  C  -1.70470   5.78799   3.24606
  C  -0.22093   7.02219   1.97616
  H  -0.36823   3.71519   2.34096
  H   0.54237   4.69739   3.44796
  H   1.81897   4.11469  -0.35924
  H   2.00187   5.48999   1.65316
  H   1.86747   3.79409   1.87576
  H  -2.13131   4.38099   1.09876
  H  -2.47969   6.14979   0.87636
  H  -1.25119   5.42559  -0.00364
  H  -2.54847   6.42149   2.97246
  H  -1.34525   6.26139   4.15976
  H  -2.15951   4.84289   3.54266
  H   0.47487   7.02459   1.13716
  H  -0.98673   7.78739   1.84936
  H   0.25877   7.33829   2.90246
  N  -0.83963   5.70249   2.13626
  O   1.04127   4.30889   0.14126
  H   2.27727   2.48009   4.51226
  H   1.67907   1.59149   6.80246
  O   1.97777   1.65159   4.18426
  O   1.26897   0.81569   6.46536
  O   0.20797  -0.16611   4.25606
  O  -0.30953   2.14969   4.95126
  P   0.79187   1.10379   4.99026
  H  -6.25539  -3.76711  -0.43964
  H  -3.31728  -2.95181   1.75416
  O  -5.86444  -3.36221   0.31326
  O  -3.67491  -2.35341   1.12356
  O  -3.62956  -4.49301  -0.22184
  O  -4.33476  -2.39181  -1.35774
  P  -4.39623  -3.15081  -0.00544
  H  -2.83595  -1.15911  -3.57594
  H  -2.91818  -1.68121  -2.29934
  O  -2.22412  -1.33731  -2.86174
  H  -1.84673  -4.26411  -0.68154
  H  -0.88813  -3.89801  -1.68884
  O  -0.93133  -3.98991  -0.73704
  H  -0.66003  -3.81461   0.89146
  H   0.33097  -4.08111   1.83126
  O  -0.57493  -3.77221   1.84396
  H  -2.42160   0.12509   3.32856
  H  -1.34935  -0.58571   3.82156
  O  -2.23903  -0.79171   3.53466
  H  -3.16816   2.24769   3.49726
  H  -1.74956   2.05459   3.65516
  O  -2.47656   1.67929   3.15836
  H   0.14457  -2.78671  -3.67354
  H  -1.18121  -2.47111  -3.06364
  O  -0.60953  -3.21191  -3.26514
  H   4.01967   2.19519  -0.17514
  H   3.97167   3.52589   0.16956
  O   3.50637   2.95709  -0.44384
  H   4.70577  -0.22511  -0.75064
  H   5.44377   0.09249   0.33276
  O   4.63997   0.43369  -0.05934
  H   2.25877  -1.50531  -4.33814
  H   1.39447  -2.09591  -5.22654
  O   1.51917  -2.10991  -4.27764
