  74
# Step 5, RM=C5H14NO[493] (21 atoms), C5H14NO[344] d=524.041pm (21 atoms), C2H3O2[24] d=542.010pm (7 atoms), C2H3O2[12] d=584.322pm (7 atoms), H2O[703] d=372.614pm (3 atoms), H2O[629] d=453.336pm (3 atoms), H2O[296] d=456.649pm (3 atoms), H2O[282] d=462.637pm (3 atoms), H2O[911] d=487.909pm (3 atoms), H2O[482] d=488.311pm (3 atoms)
  C  -0.47929   0.49692   0.73583
  C  -0.96849  -0.79227   1.37373
  C   0.70751   1.98446  -0.65567
  C  -0.00269  -0.06328  -1.56987
  C   1.79741  -0.07488   0.04283
  H  -1.41859   0.94051   0.40563
  H  -0.17259   1.07823   1.60543
  H  -2.31029  -1.78656   0.32383
  H  -0.24319  -1.18214   2.08793
  H  -1.87519  -0.65162   1.96213
  H   0.72591   0.11209  -2.36137
  H  -0.93639   0.25181  -2.03567
  H   0.86291   2.57806   0.24533
  H   1.44781   2.02876  -1.45447
  H  -0.25879   2.31896  -1.03297
  H   2.27871   0.41466   0.88953
  H   1.64991  -1.13152   0.26613
  H   2.52541  -0.10891  -0.76767
  H  -0.07319  -1.15091  -1.55577
  N   0.51091   0.53654  -0.35207
  O  -1.37759  -1.86785   0.45273
  C  -2.96589   2.51466   3.34133
  C  -4.30589   1.80893   3.01703
  C  -1.79469   0.90139   4.78233
  C  -2.92619   2.75786   5.64543
  C  -0.93309   3.06246   4.39453
  H  -2.26529   2.33576   2.52563
  H  -3.09599   3.57666   3.13323
  H  -3.82399   0.62747   1.62283
  H  -4.95119   1.73047   3.89193
  H  -4.87429   2.43866   2.33253
  H  -1.32189   0.54888   3.86563
  H  -1.14429   0.71034   5.63583
  H  -3.78539   2.12006   5.85333
  H  -3.23829   3.78506   5.45693
  H  -2.27629   2.86116   6.51443
  H  -2.72619   0.34160   4.86703
  H  -0.24149   2.70076   3.63353
  H  -1.20329   4.10796   4.24623
  H  -0.33669   3.18736   5.29823
  N  -2.12429   2.27866   4.57003
  O  -4.09319   0.47974   2.51653
  C  -4.70579  -2.39757  -0.84237
  C  -5.71169  -3.33814  -0.18917
  H  -6.32009  -2.74482   0.49333
  H  -5.14129  -4.13223   0.29263
  H  -6.31919  -3.81514  -0.95827
  O  -3.59049  -2.87603  -1.01957
  O  -5.01059  -1.27223  -1.20667
  C  -4.33969   2.34776  -3.23957
  C  -2.92289   2.42116  -3.72667
  H  -2.77919   1.61697  -4.44837
  H  -2.80539   3.39396  -4.20407
  H  -2.21019   2.25236  -2.91937
  O  -4.47249   2.00046  -2.04747
  O  -5.24399   2.54336  -4.08257
  H  -4.13269  -0.10223  -0.61637
  H  -3.86509   1.20329  -0.81407
  O  -3.63739   0.56367  -0.13937
  H   2.12141  -2.23018  -3.73587
  H   2.78691  -1.27450  -3.19727
  O   2.65921  -2.18904  -2.94517
  H   3.80301   0.97238  -3.66497
  H   3.70261   0.88479  -2.29197
  O   3.33171   0.41952  -3.04177
  H  -0.70869   5.18906   1.59653
  H  -1.75939   4.35906   0.92513
  O  -0.85909   4.31086   1.24673
  H  -2.69579  -3.91680  -0.16427
  H  -1.73079  -3.57070   0.48923
  O  -2.18919  -4.41096   0.48023
  H   4.45671   2.09696  -0.30367
  H   5.18571   1.52722  -1.32717
  O   4.29891   1.87136  -1.22047
