  83
# Step 796, RM=C5H14NO[79] (21 atoms), C5H14NO[280] d=503.880pm (21 atoms), H2O4P[74] d=480.778pm (7 atoms), H2O4P[263] d=569.371pm (7 atoms), H2O[805] d=429.528pm (3 atoms), H2O[146] d=469.976pm (3 atoms), H2O[982] d=493.952pm (3 atoms), H2O[1492] d=498.485pm (3 atoms), H2O[1659] d=504.582pm (3 atoms), H2O[305] d=512.338pm (3 atoms), H2O[1224] d=523.539pm (3 atoms), H2O[630] d=523.996pm (3 atoms), H2O[707] d=554.858pm (3 atoms)
  C  -0.97487  -0.25253   0.27559
  C  -1.54417   0.87517  -0.56601
  C   0.94713  -0.69743  -1.15711
  C   1.33133   0.27867   0.93599
  C   0.60293  -1.84623   0.95449
  H  -1.66187  -1.04503  -0.02141
  H  -1.26467  -0.00943   1.29789
  H  -1.27397   2.65797  -1.02111
  H  -2.54557   1.13067  -0.21951
  H  -1.68987   0.50597  -1.58121
  H   0.78693   0.20317  -1.74991
  H   0.33063  -1.46223  -1.62951
  H   1.95663  -1.06493  -1.34151
  H   1.43733   1.21327   0.38509
  H   2.34373  -0.12523   0.93639
  H   1.17263   0.67257   1.93989
  H   1.60673  -2.26833   1.00289
  H  -0.02087  -2.60393   0.48039
  H   0.21333  -1.71493   1.96399
  N   0.47783  -0.61363   0.20039
  O  -0.77797   2.01647  -0.53581
  C   3.06423   4.00877  -2.92681
  C   3.76133   3.03137  -2.05111
  C   1.08243   4.98877  -3.88161
  C   1.00203   2.69857  -3.39581
  C   1.00553   4.33397  -1.64161
  H   3.39353   3.74587  -3.93211
  H   3.34283   5.03547  -2.68941
  H   4.46653   2.86597  -0.34561
  H   3.05553   2.20887  -1.93491
  H   4.68683   2.65847  -2.48961
  H   1.30393   4.86057  -4.94111
  H   1.51283   5.95827  -3.63111
  H  -0.00097   5.09507  -3.82661
  H  -0.06297   2.79227  -3.60801
  H   1.09133   2.00157  -2.56261
  H   1.43553   2.34507  -4.33131
  H  -0.06447   4.52907  -1.71321
  H   1.49693   5.24277  -1.29421
  H   1.18973   3.67777  -0.79101
  N   1.55523   3.98017  -2.96591
  O   3.90393   3.52207  -0.72781
  H  -2.40607  -2.69483  -3.41951
  H   0.73843  -4.72173  -2.58701
  O  -1.81187  -2.60953  -2.69611
  O   0.30773  -3.96943  -2.95071
  O  -1.99197  -5.02573  -3.21741
  O  -1.13617  -4.28113  -0.89241
  P  -1.14697  -3.99623  -2.43831
  H   0.52183  -3.32593   4.56659
  H   0.39393  -0.22543   5.24789
  O   1.25243  -2.87023   4.18959
  O   1.01663  -0.51273   4.60499
  O   3.35153  -1.70983   4.98739
  O   1.44513  -2.19293   6.65139
  P   1.75313  -1.79193   5.13159
  H   4.46793  -0.72993  -0.37991
  H   4.62513   0.62867  -0.40801
  O   4.16113  -0.01733  -0.94051
  H  -0.93077   2.07687   4.49699
  H  -0.34627   2.65457   3.46279
  O  -1.25757   2.56647   3.74219
  H  -5.63187   0.38377   1.42299
  H  -4.43777   1.18807   1.54619
  O  -4.76597   0.45777   1.02159
  H  -3.75677   2.77437  -2.05101
  H  -3.41127   4.05207  -1.98361
  O  -2.95567   3.25607  -2.25741
  H   3.79613  -0.51343  -3.42421
  H   4.04173  -1.12223  -2.24091
  O   3.74883  -1.41423  -3.10411
  H  -4.51587  -1.21283   0.62699
  H  -5.40987  -2.07903   1.03409
  O  -4.59467  -2.16273   0.53939
  H  -4.06807   3.21447   2.76289
  H  -2.87507   2.52787   2.89239
  O  -3.79567   2.29687   2.76849
  H  -5.63437   1.89527  -1.37511
  H  -4.89937   1.04427  -0.49151
  O  -4.82147   1.38997  -1.38071
  H  -2.87957   1.77547  -4.80611
  H  -2.50627   2.71427  -3.73901
  O  -2.15547   2.34687  -4.55031
