  83
# Step 901, RM=C5H14NO[91] (21 atoms), C5H14NO[229] d=612.342pm (21 atoms), H2O4P[133] d=514.744pm (7 atoms), H2O4P[20] d=514.794pm (7 atoms), H2O[988] d=425.550pm (3 atoms), H2O[920] d=428.767pm (3 atoms), H2O[1535] d=452.385pm (3 atoms), H2O[1554] d=467.180pm (3 atoms), H2O[112] d=474.910pm (3 atoms), H2O[278] d=495.570pm (3 atoms), H2O[757] d=505.918pm (3 atoms), H2O[1411] d=515.610pm (3 atoms), H2O[765] d=519.773pm (3 atoms)
  C   0.39979  -0.61361  -0.70514
  C   1.72809  -0.17932  -0.10364
  C  -0.87211   0.11131   1.27186
  C  -0.63991   1.64513  -0.64544
  C  -1.97341  -0.27674  -0.88284
  H   0.31069  -1.63444  -0.33354
  H   0.60589  -0.72611  -1.76954
  H   2.41689  -0.35060   1.69246
  H   1.74699   0.89843   0.05816
  H   2.60579  -0.32598  -0.73314
  H  -0.92241  -0.95635   1.48566
  H  -1.83291   0.50803   1.59996
  H  -0.10271   0.65273   1.82236
  H   0.13739   2.25963  -0.19124
  H  -1.58701   2.10723  -0.36704
  H  -0.44431   2.02683  -1.64754
  H  -2.08141  -1.35369  -0.75394
  H  -1.99681  -0.13713  -1.96364
  H  -2.86281   0.26452  -0.56014
  N  -0.75051   0.20773  -0.22304
  O   1.92859  -0.90110   1.09956
  C   3.38149  -3.45978  -1.78254
  C   3.42029  -4.07012  -3.24584
  C   5.02849  -4.92970  -0.63834
  C   5.91799  -2.96685  -1.53214
  C   4.54509  -2.84698   0.25666
  H   2.55659  -3.91526  -1.23454
  H   3.05459  -2.44696  -2.01794
  H   4.31429  -5.46786  -4.24484
  H   3.98999  -3.50226  -3.98144
  H   2.43589  -3.95321  -3.69894
  H   6.00369  -5.05301  -0.16734
  H   4.28709  -5.38957   0.01516
  H   5.19919  -5.60760  -1.47464
  H   6.79079  -3.01204  -0.88074
  H   6.19349  -3.34099  -2.51814
  H   5.61949  -1.94425  -1.76294
  H   4.39199  -1.77326   0.14816
  H   3.72759  -3.16826   0.90206
  H   5.41279  -2.89638   0.91466
  N   4.68019  -3.57904  -0.99304
  O   3.86409  -5.37185  -3.41954
  H   2.91049   3.37423   1.82256
  H   5.38589   4.71573  -0.41434
  O   2.51719   3.70753   1.03656
  O   4.84639   4.41643   0.29486
  O   2.85089   4.49243  -1.39704
  O   3.85059   2.29503  -0.59514
  P   3.51509   3.75833  -0.18164
  H   0.98539  -0.52741  -7.01514
  H   1.00199   1.87193  -4.21054
  O   0.99579   0.28068  -6.53504
  O   0.99559   0.95923  -3.98604
  O  -1.18901   0.17333  -5.18844
  O   0.72269  -1.40547  -4.76144
  P   0.38809   0.05636  -5.13194
  H  -0.94111  -4.62107  -0.56844
  H  -0.38041  -3.84951  -1.65524
  O  -0.12951  -4.16282  -0.78634
  H   1.71909   1.22363   3.62386
  H   1.63679   0.00821   4.27826
  O   2.22589   0.41183   3.64086
  H   0.25699   2.92813   3.03046
  H   0.11569   2.45883   4.32346
  O   0.82069   2.50443   3.67766
  H  -2.40201  -1.60804   3.34456
  H  -2.95511  -0.74257   4.27556
  O  -2.07551  -1.03857   4.04116
  H  -1.20031  -3.54070  -3.89504
  H  -0.02901  -2.58664  -3.65614
  O  -0.47111  -3.35843  -3.30234
  H   4.12879   0.86373  -1.77414
  H   5.32119   0.31823  -2.13424
  O   4.40229   0.06877  -2.23184
  H  -0.53071  -0.79718   4.56086
  H  -0.37571   0.33623   5.20366
  O   0.19279  -0.42078   5.06206
  H  -4.76171  -0.88714  -1.07534
  H  -5.63081  -0.86368  -0.00984
  O  -4.92761  -1.43902  -0.31104
  H   0.05099   5.20393  -0.81594
  H   1.23039   4.75703  -1.57174
  O   0.29419   4.91383  -1.69514
