  83
# Step 8639, RM=C5H14NO[301] (21 atoms), C5H14NO[18] d=521.758pm (21 atoms), H2O4P[342] d=507.095pm (7 atoms), H2O4P[43] d=584.666pm (7 atoms), H2O[96] d=461.898pm (3 atoms), H2O[610] d=470.586pm (3 atoms), H2O[1461] d=492.160pm (3 atoms), H2O[171] d=493.550pm (3 atoms), H2O[1597] d=619.185pm (3 atoms), H2O[286] d=643.929pm (3 atoms), H2O[1124] d=673.560pm (3 atoms), H2O[751] d=678.880pm (3 atoms), H2O[1496] d=684.425pm (3 atoms)
  C  -0.49551   0.70921   0.71521
  C  -0.75991  -0.59169   1.58711
  C  -0.10761   1.68871  -1.45479
  C  -0.60381  -0.62909  -1.36289
  C   1.50119   0.08381  -0.59499
  H  -1.41081   1.29761   0.65071
  H   0.15389   1.46361   1.15931
  H   0.01099  -2.28859   1.86341
  H  -1.64131  -1.10739   1.20601
  H  -1.06751  -0.37329   2.60981
  H   0.10439   1.49001  -2.50529
  H  -1.15801   1.97881  -1.42809
  H   0.46839   2.53331  -1.07649
  H  -0.52161  -1.57099  -0.82039
  H  -0.10931  -0.87669  -2.30219
  H  -1.66261  -0.47609  -1.57189
  H   1.92639   0.09261  -1.59859
  H   2.07719   0.70571   0.09031
  H   1.70359  -0.90839  -0.19149
  N   0.06049   0.42311  -0.64819
  O   0.36759  -1.44049   1.64761
  C   2.53639   0.15661   3.54991
  C   3.51409  -0.54209   2.68221
  C   3.28809  -0.03209   5.90531
  C   1.96569  -1.80459   5.02521
  C   1.08749   0.20481   5.39951
  H   2.63519   1.23961   3.62301
  H   1.58769   0.14791   3.01321
  H   5.32359  -0.61019   3.37381
  H   3.83179   0.25771   2.01321
  H   2.91139  -1.27419   2.14461
  H   4.29399  -0.27089   5.56001
  H   3.16349  -0.35669   6.93831
  H   3.39229   1.05251   5.87231
  H   2.80909  -2.48539   4.90991
  H   1.28539  -2.15229   4.24791
  H   1.46099  -2.00689   5.96991
  H   1.21889   1.28671   5.41421
  H   0.18089  -0.07499   4.86291
  H   0.87609  -0.01389   6.44621
  N   2.30719  -0.37469   4.91951
  O   4.59219  -1.19299   3.23821
  H  -5.86001   0.31411  -0.99179
  H  -3.45161   3.51471  -0.61879
  O  -5.86621   1.25171  -1.05849
  O  -3.91741   2.88241  -1.13539
  O  -3.81451   0.69101   0.19591
  O  -5.30361   2.53701   0.99241
  P  -4.69081   1.87021  -0.28339
  H  -0.44991   5.65311  -2.19859
  H  -0.13491   4.71771   1.20791
  O  -1.24611   5.45371  -1.74049
  O  -0.74401   4.51471   0.52131
  O  -2.47361   6.26891   0.34071
  O  -0.00241   6.82051  -0.00699
  P  -1.07661   5.72721  -0.20339
  H  -1.01031  -4.49049   2.49691
  H   0.24359  -4.30699   2.89671
  O  -0.26491  -4.00439   2.14431
  H  -4.48491  -0.81679   2.46991
  H  -3.92041  -0.66689   1.08191
  O  -4.19111  -1.32979   1.71711
  H   2.64129   4.27191   2.08011
  H   3.39319   3.38061   2.88631
  O   2.59809   3.35571   2.35391
  H  -1.92981  -1.93099  -4.78192
  H  -3.15781  -1.41609  -4.26685
  O  -2.21851  -1.27889  -4.14356
  H  -5.14281   0.25051   4.74991
  H  -5.36491   0.81001   3.45351
  O  -4.73891   0.22671   3.88241
  H   1.56459   6.19371   1.21391
  H   1.56699   6.31521   2.72041
  O   1.90389   5.77551   2.00521
  H  -2.98341  -6.00589   2.55481
  H  -3.05921  -5.29409   3.73941
  O  -2.40051  -5.43929   3.06021
  H  -4.98781  -2.21539  -5.18136
  H  -5.66231  -1.76519  -3.99269
  O  -4.79551  -1.70559  -4.39435
  H   5.27229   2.25531   3.81721
  H   4.91059   3.27621   4.71801
  O   4.74249   3.05241   3.80261
