  74
# Step 8, RM=C5H14NO[278] (21 atoms), C5H14NO[173] d=600.096pm (21 atoms), C2H3O2[310] d=433.709pm (7 atoms), C2H3O2[225] d=509.239pm (7 atoms), H2O[780] d=445.863pm (3 atoms), H2O[642] d=455.436pm (3 atoms), H2O[880] d=468.507pm (3 atoms), H2O[92] d=469.089pm (3 atoms), H2O[718] d=501.438pm (3 atoms), H2O[365] d=509.242pm (3 atoms)
  C  -0.76680  -0.09705   0.72132
  C  -1.61980   0.90545  -0.08858
  C   0.85730  -1.18195  -0.81248
  C   1.27250   1.00605  -0.03588
  C   1.30100  -0.89095   1.51862
  H  -1.28620  -1.05455   0.68212
  H  -0.82020   0.20925   1.76602
  H  -2.28050   0.92725  -1.90958
  H  -1.25820   1.93155  -0.02138
  H  -2.63620   0.73995   0.26882
  H   2.33500   0.84955  -0.22218
  H   1.19680   1.77165   0.73622
  H   1.88030  -1.55805  -0.79908
  H   0.38890  -2.16515  -0.76848
  H   0.60390  -0.83755  -1.81518
  H   0.80830   1.51375  -0.88128
  H   1.32520  -0.18485   2.34862
  H   2.32980  -1.23465   1.41082
  H   0.72330  -1.74435   1.87372
  N   0.67800  -0.27475   0.33952
  O  -1.58600   0.48725  -1.44358
  C  -4.99050  -4.28645  -0.78018
  C  -5.37500  -4.46425  -2.26298
  C  -4.02020  -2.00855  -0.82878
  C  -6.34190  -2.26535  -0.37678
  C  -4.53430  -2.89095   1.27032
  H  -5.69210  -4.90715  -0.22288
  H  -4.01640  -4.75715  -0.64748
  H  -4.76690  -4.09175  -4.05748
  H  -6.40110  -4.15115  -2.45598
  H  -5.44790  -5.53195  -2.46978
  H  -4.20810  -1.72955  -1.86558
  H  -7.21800  -2.88585  -0.18778
  H  -6.51250  -1.71315  -1.30098
  H  -4.17040  -1.02455  -0.38468
  H  -2.97200  -2.29955  -0.76108
  H  -6.47790  -1.42025   0.29812
  H  -4.35120  -1.90545   1.69852
  H  -5.28240  -3.24675   1.97872
  H  -3.62650  -3.46595   1.45292
  N  -5.02340  -2.86975  -0.16598
  O  -4.50720  -3.85935  -3.17908
  C  -0.23170   3.57825   2.33762
  C   0.17750   4.45035   1.12362
  H   1.25580   4.56345   1.01222
  H  -0.35380   4.19035   0.20812
  H  -0.20290   5.46205   1.26492
  O  -1.43280   3.65165   2.70322
  O   0.77880   3.04725   2.92092
  C   3.33900  -1.55505  -3.52948
  C   4.18250  -1.13255  -2.34028
  H   3.97500  -1.83535  -1.53328
  H   3.95480  -0.09195  -2.10928
  H   5.25150  -1.15135  -2.55258
  O   3.85850  -1.54455  -4.68508
  O   2.16910  -1.90535  -3.35418
  H  -2.38150  -1.07945   3.71272
  H  -3.62890  -0.62395   3.82882
  O  -2.85920  -0.34065   3.33542
  H  -1.63520  -4.83245   1.91212
  H  -1.00220  -3.98515   0.88112
  O  -1.27590  -3.95265   1.79772
  H  -3.13100   1.20175   2.91642
  H  -2.69560   2.52675   2.45032
  O  -3.48490   1.98745   2.49972
  H  -1.28920  -2.99065   3.20652
  H  -0.35640  -2.43815   4.13122
  O  -1.27430  -2.31835   3.88772
  H   1.58410  -0.67845   4.68642
  H   2.09440  -2.00995   4.20032
  O   1.31940  -1.59165   4.57552
  H   2.45440   1.26765   4.33212
  H   1.32300   2.09075   4.09992
  O   1.56720   1.36735   4.67722
