  83
# Step 3777, RM=C5H14NO[174] (21 atoms), C5H14NO[58] d=604.459pm (21 atoms), H2O4P[111] d=606.575pm (7 atoms), H2O4P[19] d=640.982pm (7 atoms), H2O[877] d=354.556pm (3 atoms), H2O[1388] d=430.105pm (3 atoms), H2O[134] d=446.292pm (3 atoms), H2O[481] d=456.865pm (3 atoms), H2O[1460] d=457.063pm (3 atoms), H2O[1199] d=458.586pm (3 atoms), H2O[1267] d=460.626pm (3 atoms), H2O[317] d=467.142pm (3 atoms), H2O[596] d=489.376pm (3 atoms)
  C  -0.47753   0.92984  -0.25987
  C  -1.08703   0.12064  -1.55787
  C   1.56707  -0.43696  -0.24867
  C  -0.13803  -0.70446   1.48753
  C   1.21197   1.25544   1.39043
  H  -1.34893   1.13794   0.36103
  H  -0.08993   1.88274  -0.62027
  H  -2.12943  -1.06916  -0.68727
  H  -1.92363   0.68164  -1.97457
  H  -0.33843   0.05034  -2.34687
  H   1.15757  -1.30626  -0.76307
  H   2.02157   0.23204  -0.97947
  H   2.41147  -0.88226   0.27743
  H  -0.50723  -1.58826   0.96733
  H  -0.99253  -0.36376   2.07233
  H   0.54937  -1.15006   2.20663
  H   1.78227   1.98384   0.81393
  H   0.46257   1.87844   1.87873
  H   1.80987   0.71704   2.12583
  N   0.50557   0.23074   0.55733
  O  -1.43113  -1.21506  -1.30707
  C  -1.23593  -0.54556  -6.52117
  C   0.20367  -0.58656  -5.98537
  C  -2.03243  -2.77806  -6.26447
  C  -3.59973  -1.02536  -6.51157
  C  -2.44543  -1.47536  -4.36807
  H  -1.45303   0.52004  -6.44787
  H  -1.32953  -0.77706  -7.58217
  H   1.00627  -0.20786  -4.36237
  H   0.55157  -1.60726  -5.82607
  H   0.83937  -0.17186  -6.76767
  H  -1.12563  -3.12266  -5.76737
  H  -2.05923  -3.00636  -7.32997
  H  -2.87823  -3.39936  -5.96997
  H  -4.42953  -1.55326  -6.04157
  H  -3.77493  -1.25136  -7.56337
  H  -3.84663   0.02934  -6.39047
  H  -1.49893  -1.81596  -3.94817
  H  -3.20293  -2.15746  -3.98207
  H  -2.69183  -0.47436  -4.01427
  N  -2.30403  -1.42846  -5.83537
  O   0.18207   0.03384  -4.75637
  H   7.49257  -1.05716  -2.11647
  H   5.55967  -0.76826   0.18273
  O   6.81107  -1.50936  -2.57977
  O   6.03667  -1.45866  -0.24087
  O   4.92207  -2.89106  -1.93157
  O   4.68227  -0.29426  -2.12797
  P   5.57837  -1.49696  -1.72657
  H  -0.79853  -0.98666   5.41493
  H  -1.78663  -2.95496   6.35603
  O  -1.56823  -0.92146   4.87923
  O  -2.63493  -2.56276   6.45753
  O  -3.47363  -0.21996   6.40973
  O  -3.96113  -1.74966   4.49253
  P  -2.89153  -1.38996   5.54423
  H  -3.28723  -1.84986   1.09313
  H  -3.90363  -0.52886   0.95243
  O  -3.28623  -1.10116   0.49673
  H   3.38937  -0.19146  -2.97487
  H   2.81027   0.73814  -3.62447
  O   2.54857  -0.16206  -3.43127
  H  -3.12483   4.04654  -1.61887
  H  -2.08843   3.71314  -0.77787
  O  -2.69343   3.23664  -1.34637
  H   2.98227  -3.63496   2.02873
  H   3.43017  -2.46766   1.48173
  O   2.97377  -3.24316   1.15543
  H   1.86197  -1.71706  -3.41127
  H   1.77227  -2.88796  -2.62327
  O   1.51557  -2.60486  -3.50087
  H  -0.98253   5.38384   0.37673
  H  -0.08283   4.39244   0.65223
  O  -0.92663   4.44414   0.20333
  H   2.57677  -3.34246  -0.48577
  H   3.32747  -3.57126  -1.54127
  O   2.39567  -3.69156  -1.35837
  H   3.90297   2.46264  -2.07867
  H   4.26207   1.44534  -1.16927
  O   3.87757   2.32114  -1.13227
  H   2.22887   4.50914   1.19173
  H   1.46067   4.64604   2.39393
  O   1.31707   4.43114   1.47233
