  83
# Step 2668, RM=C5H14NO[335] (21 atoms), C5H14NO[32] d=612.138pm (21 atoms), H2O4P[40] d=545.906pm (7 atoms), H2O4P[156] d=562.216pm (7 atoms), H2O[1104] d=393.765pm (3 atoms), H2O[118] d=420.031pm (3 atoms), H2O[1012] d=426.748pm (3 atoms), H2O[867] d=450.898pm (3 atoms), H2O[815] d=450.932pm (3 atoms), H2O[1459] d=472.059pm (3 atoms), H2O[204] d=472.389pm (3 atoms), H2O[42] d=502.790pm (3 atoms), H2O[736] d=525.184pm (3 atoms)
  C  -0.25383   1.00723   0.27494
  C   0.72437   1.57333  -0.79156
  C  -1.00963  -1.06447  -0.81486
  C   0.60957  -1.25307   0.92794
  C  -1.55293  -0.52527   1.43694
  H  -1.18233   1.49013  -0.02976
  H   0.08127   1.39843   1.23554
  H   2.56537   0.76753  -0.85146
  H   1.27437   2.40553  -0.35226
  H   0.25407   1.97463  -1.68926
  H  -1.91583  -0.58377  -1.18346
  H  -0.23203  -0.96837  -1.57256
  H  -1.27983  -2.11117  -0.67496
  H   1.35137  -1.38567   0.14034
  H   0.36417  -2.29417   1.13734
  H   1.08997  -0.84837   1.81874
  H  -1.25673  -0.18847   2.43044
  H  -1.95553  -1.53177   1.55074
  H  -2.46093  -0.02187   1.10484
  N  -0.50083  -0.44777   0.42544
  O   1.75937   0.70843  -1.34126
  C   3.94737  -0.82957  -4.05216
  C   4.97797   0.10523  -4.81166
  C   2.19167  -2.45817  -3.87426
  C   2.05157  -0.64277  -5.54726
  C   3.65787  -2.40227  -5.70336
  H   4.56927  -1.40637  -3.36756
  H   3.40757  -0.19257  -3.35136
  H   5.23737   1.46203  -6.10866
  H   5.68197  -0.54377  -5.33256
  H   5.52467   0.55503  -3.98296
  H   1.44347  -3.02397  -4.42926
  H   2.94837  -3.08287  -3.39956
  H   1.72717  -1.79397  -3.14546
  H   2.46547  -0.18897  -6.44766
  H   1.19797  -1.29047  -5.74756
  H   1.56707   0.09613  -4.90886
  H   4.22237  -1.78567  -6.40276
  H   4.47497  -2.98157  -5.27346
  H   3.09737  -3.12077  -6.30146
  N   2.94647  -1.59027  -4.77936
  O   4.46637   1.07783  -5.72016
  H  -2.19783  -0.39870  -4.13546
  H  -0.14773   1.27689  -6.10696
  O  -2.26303   0.12183  -4.91546
  O  -0.42673   1.89562  -5.45666
  O  -2.91113   2.39506  -5.70436
  O  -1.82813   2.19118  -3.41376
  P  -1.83613   1.62056  -4.88076
  H   4.67947  -2.20157  -0.16026
  H   2.37897  -4.95107   0.91064
  O   4.18157  -2.68277  -0.79606
  O   2.63647  -4.09727   0.61354
  O   3.34027  -4.97037  -1.58646
  O   5.09797  -4.80917   0.28964
  P   3.80687  -4.12527  -0.34846
  H   3.83477   0.42773   1.32784
  H   3.53117   1.58053   0.68494
  O   3.85407   0.72023   0.41664
  H   0.70517   2.12970   3.47684
  H   1.62177   1.88013   4.41624
  O   1.53637   1.65508   3.48984
  H  -3.25843   2.17714  -2.21656
  H  -2.77483   2.63570  -0.82756
  O  -3.47113   2.16294  -1.28336
  H   2.85357   0.60613   3.06004
  H   3.27607  -0.64007   3.52774
  O   3.52197  -0.03767   2.82564
  H   2.64587   2.62141   2.12874
  H   3.52147   3.65090   1.82384
  O   3.08757   2.94556   1.34384
  H  -3.33773   3.79003   1.86504
  H  -2.04013   3.68001   1.37994
  O  -2.53233   3.34548   2.12954
  H  -5.18323  -1.12511  -0.90666
  H  -4.10263  -1.94702  -0.74246
  O  -4.52163  -1.25738  -0.22766
  H  -4.03693   1.33113   3.78324
  H  -3.55923   2.07383   2.66374
  O  -3.93593   1.21143   2.83894
  H  -1.08933   3.49016   4.72044
  H  -1.28853   3.36229   3.33444
  O  -0.54593   3.40685   3.93684
