  83
# Step 1500, RM=C5H14NO[345] (21 atoms), C5H14NO[254] d=612.403pm (21 atoms), H2O4P[64] d=545.551pm (7 atoms), H2O4P[134] d=552.013pm (7 atoms), H2O[411] d=421.391pm (3 atoms), H2O[1343] d=429.413pm (3 atoms), H2O[1402] d=459.798pm (3 atoms), H2O[772] d=463.788pm (3 atoms), H2O[459] d=464.270pm (3 atoms), H2O[902] d=475.019pm (3 atoms), H2O[21] d=491.819pm (3 atoms), H2O[116] d=492.087pm (3 atoms), H2O[1072] d=504.016pm (3 atoms)
  C  -0.32300   0.23140  -1.01064
  C   0.13580  -1.24320  -1.46004
  C   1.30400   0.69680   0.72636
  C  -0.61500   2.03940   0.42156
  C  -0.91830   0.02450   1.34716
  H  -0.00870   0.99870  -1.71814
  H  -1.36300   0.36470  -1.30854
  H   0.85790  -2.95440  -0.72534
  H   0.91670  -1.10000  -2.20684
  H  -0.69390  -1.67060  -2.02314
  H   1.37650   0.66730   1.81356
  H   1.86020  -0.21820   0.52276
  H   1.90380   1.51890   0.33566
  H  -0.51280   2.50470   1.40196
  H  -1.68090   2.04550   0.19386
  H  -0.26910   2.70060  -0.37304
  H  -1.00250   0.51010   2.31936
  H  -1.92310  -0.17570   0.97516
  H  -0.59160  -0.93040   1.75906
  N  -0.08040   0.67240   0.35086
  O   0.45430  -2.17000  -0.38634
  C  -3.59700  -5.34620  -1.29504
  C  -3.06960  -6.77090  -1.51384
  C  -4.06360  -5.39090   1.00166
  C  -1.88270  -4.67710   0.36966
  C  -3.69250  -3.23210   0.01786
  H  -3.24340  -4.67510  -2.07784
  H  -4.67410  -5.37460  -1.45994
  H  -1.21250  -6.90840  -2.02234
  H  -3.24220  -7.08680  -2.54274
  H  -3.61540  -7.47580  -0.88674
  H  -3.76810  -6.43930   1.03996
  H  -5.14660  -5.34600   0.88646
  H  -3.81740  -4.95180   1.96846
  H  -1.81660  -3.98160   1.20626
  H  -1.29500  -4.27850  -0.45734
  H  -1.31550  -5.54110   0.71586
  H  -3.65320  -2.86510   1.04346
  H  -2.86550  -2.70600  -0.45904
  H  -4.69540  -3.06780  -0.37604
  N  -3.29670  -4.68430   0.00036
  O  -1.69060  -6.99160  -1.21144
  H   3.66550   3.48390  -5.45555
  H   2.44810   0.80220  -3.98474
  O   3.06860   2.83980  -5.12006
  O   2.79830   1.24580  -3.23354
  O   1.91330   3.56970  -3.06384
  O   4.40610   3.20130  -2.94904
  P   3.08190   2.69490  -3.62314
  H  -0.19300  -2.72670   3.86876
  H  -3.78400  -1.01750   4.04756
  O  -1.06320  -2.92100   3.57116
  O  -2.95380  -1.29250   3.70296
  O  -3.25430  -3.60680   4.51356
  O  -1.88990  -1.91050   5.84556
  P  -2.27130  -2.46270   4.41686
  H   0.25810   0.09000  -4.51893
  H  -0.99280  -0.47340  -4.52920
  O  -0.58960   0.29450  -4.12424
  H  -3.71000   0.86770  -1.32184
  H  -4.06430  -0.47490  -1.63894
  O  -4.21120   0.15210  -0.93084
  H  -0.41250   1.01460   4.99986
  H  -0.23450   1.88050   4.12806
  O   0.33100   1.16380   4.41576
  H  -2.81820   2.44430  -2.79834
  H  -3.74960   3.19410  -2.10384
  O  -3.40880   2.30080  -2.05874
  H   3.90390  -0.03720  -2.04534
  H   4.62990  -0.23450  -0.74524
  O   4.35080  -0.70800  -1.52894
  H  -4.08760  -2.21600  -3.02074
  H  -2.84390  -1.54330  -3.48004
  O  -3.49000  -1.51000  -2.77454
  H   1.79370  -4.16850  -2.33074
  H   2.61000  -4.86250  -1.53194
  O   1.87540  -4.26750  -1.38214
  H   1.70580  -1.22060   5.40786
  H   0.98120  -0.48260   4.48526
  O   1.52420  -1.27070   4.46936
  H  -1.36570   1.67120  -4.03644
  H  -2.10290   2.57720  -4.83003
  O  -1.67490   2.57490  -3.97384
