  74
# Step 5, RM=C5H14NO[307] (21 atoms), C5H14NO[412] d=563.437pm (21 atoms), C2H3O2[234] d=410.922pm (7 atoms), C2H3O2[91] d=494.559pm (7 atoms), H2O[416] d=425.301pm (3 atoms), H2O[426] d=468.093pm (3 atoms), H2O[526] d=480.634pm (3 atoms), H2O[1113] d=485.183pm (3 atoms), H2O[50] d=499.686pm (3 atoms), H2O[356] d=508.091pm (3 atoms)
  C  -0.48442  -0.88487  -0.25612
  C  -0.07642  -0.69777  -1.74602
  C   1.46518   0.05653   0.61628
  C  -0.50302   1.33693   0.82618
  C  -0.16422  -0.54687   2.15818
  H  -1.57412  -0.90627  -0.24132
  H  -0.13672  -1.89307  -0.03082
  H  -1.18702   0.73893  -2.28352
  H   0.97678  -0.95577  -1.85742
  H  -0.57712  -1.46187  -2.34052
  H  -0.12572   1.98703   1.61558
  H  -1.57682   1.23433   0.98278
  H   1.72518   0.55343  -0.31842
  H   2.02338   0.59473   1.38238
  H   1.84058  -0.96677   0.60448
  H  -0.21062   1.88093  -0.07202
  H  -1.19652  -0.88907   2.23168
  H   0.19048  -0.01467   3.04078
  H   0.32208  -1.52167   2.19778
  N   0.04548   0.03093   0.85568
  O  -0.24892   0.62753  -2.25852
  C   3.21408   1.39243  -4.05452
  C   4.24818   0.73033  -3.11282
  C   1.70008   1.72153  -5.78512
  C   3.87238   0.79503  -6.33152
  C   2.14898  -0.59507  -5.27732
  H   2.39778   1.59933  -3.36242
  H   3.51318   2.41283  -4.29432
  H   4.51938  -1.15887  -3.15082
  H   4.23218   1.31933  -2.19572
  H   5.28188   0.89643  -3.41602
  H   4.27808   1.80653  -6.34842
  H   2.84258  -1.37007  -4.95102
  H   1.30558  -0.51117  -4.59192
  H   3.57718   0.62193  -7.36642
  H   4.71738   0.24353  -5.91942
  H   0.84128   1.69553  -5.11432
  H   1.74058  -0.91947  -6.23442
  H   1.33618   1.37653  -6.75292
  H   1.91678   2.77673  -5.95182
  N   2.75568   0.81703  -5.34622
  O   3.89358  -0.57467  -2.75082
  C  -3.75942   0.02643  -1.64232
  C  -4.44182   0.54643  -0.44832
  H  -3.78762   0.40533   0.41198
  H  -4.72442   1.59923  -0.44612
  H  -5.43222   0.10383  -0.34102
  O  -4.06652  -1.17007  -1.96382
  O  -2.90842   0.71513  -2.24592
  C   1.10078   4.78263   0.84518
  C   1.19158   4.33283  -0.59702
  H   0.15958   4.32723  -0.94792
  H   1.76158   4.91893  -1.31802
  H   1.45958   3.28263  -0.71222
  O   1.34898   5.94373   1.01508
  O   0.54618   4.05563   1.73768
  H   0.05768  -4.25317   0.97308
  H   0.01038  -4.30037   2.44578
  O   0.42968  -3.81237   1.73698
  H  -3.09552  -2.59987  -1.69193
  H  -2.30312  -3.40527  -2.56046
  O  -2.68922  -3.46657  -1.68671
  H   2.88368  -1.53677   3.52686
  H   3.86018  -0.56697   3.87506
  O   2.91488  -0.60157   3.72846
  H  -1.38002  -4.21787  -0.87222
  H  -0.93982  -5.53567  -0.91652
  O  -0.73662  -4.75187  -0.40612
  H   2.53928   0.91853   3.97246
  H   3.39658   1.89983   4.02576
  O   2.44648   1.86943   3.91336
  H   1.01688   2.66963   3.93396
  H   0.15348   3.37803   3.08808
  O   0.21428   3.18343   4.02336
