  83
# Step 5997, RM=C5H14NO[255] (21 atoms), C5H14NO[227] d=633.958pm (21 atoms), H2O4P[316] d=525.075pm (7 atoms), H2O4P[113] d=535.171pm (7 atoms), H2O[843] d=406.192pm (3 atoms), H2O[589] d=407.446pm (3 atoms), H2O[779] d=410.837pm (3 atoms), H2O[833] d=419.714pm (3 atoms), H2O[1574] d=437.205pm (3 atoms), H2O[1469] d=470.772pm (3 atoms), H2O[458] d=471.364pm (3 atoms), H2O[1298] d=486.904pm (3 atoms), H2O[467] d=490.653pm (3 atoms)
  C   0.11832  -0.25112   1.04100
  C   0.28784   1.22768   1.43230
  C  -0.66691  -2.04412  -0.33430
  C  -1.40314   0.13488  -0.84619
  C   0.91126  -0.54872  -1.24671
  H   1.00284  -0.84252   1.27770
  H  -0.48281  -0.69392   1.83520
  H   0.77925   2.81778   0.32920
  H  -0.57390   1.86798   1.62090
  H   0.90237   1.41178   2.31350
  H  -1.55232  -2.09262   0.29957
  H   0.07817  -2.77052  -0.00986
  H  -0.98894  -2.57962  -1.22739
  H  -2.35924  -0.01692  -0.34525
  H  -1.61949  -0.37552  -1.78470
  H  -1.20263   1.19368  -1.01000
  H   0.74842  -0.99132  -2.22938
  H   1.73943  -1.14392  -0.86218
  H   1.29116   0.45238  -1.45101
  N  -0.25991  -0.61332  -0.36475
  O   0.93348   1.88608   0.36310
  C  -4.29857   2.94208  -2.43610
  C  -3.55763   3.87828  -3.34722
  C  -6.06742   2.87028  -4.23679
  C  -6.38662   1.90358  -2.01746
  C  -4.84361   0.93708  -3.61402
  H  -3.59600   2.32188  -1.87946
  H  -4.72316   3.66358  -1.73810
  H  -2.40499   3.83198  -4.93954
  H  -4.22359   4.59788  -3.82346
  H  -2.88410   4.44038  -2.70031
  H  -6.50313   3.84218  -4.00517
  H  -5.43463   3.05558  -5.10474
  H  -6.97814   2.30698  -4.44025
  H  -5.82123   1.47598  -1.18950
  H  -6.77721   2.80738  -1.54978
  H  -7.29162   1.39238  -2.34561
  H  -4.52960   0.18088  -2.89448
  H  -4.13330   1.12258  -4.41971
  H  -5.67709   0.36438  -4.02078
  N  -5.42642   2.21128  -3.07615
  O  -2.79139   3.21678  -4.33516
  H  -0.11716  -2.14432  -5.89424
  H  -1.29183   1.55518  -4.49729
  O   0.02511  -1.38162  -5.36350
  O  -0.71752   0.83138  -4.32442
  O  -1.85078  -0.12352  -6.49642
  O  -2.23938  -1.17502  -4.24183
  P  -1.19809  -0.44732  -5.06403
  H   3.66016  -2.94022   3.65440
  H   5.28593  -4.42692   1.31760
  O   3.18360  -2.66882   2.89090
  O   4.66213  -4.49682   2.01740
  O   3.21058  -3.19502   0.29078
  O   2.15500  -4.80332   1.94170
  P   3.31539  -3.78092   1.76310
  H  -2.80736   0.77378   2.44280
  H  -2.09340   0.91208   3.65310
  O  -2.54513   0.21638   3.17550
  H  -2.28856   4.38788  -0.15356
  H  -0.95977   4.04048   0.19022
  O  -1.79845   3.59588   0.06716
  H   2.88544   1.72348  -0.28090
  H   3.99125   0.84368  -0.12191
  O   3.78012   1.63918  -0.61054
  H  -4.03844   2.61978   1.37550
  H  -2.72564   2.48258   1.00010
  O  -3.34325   1.98058   1.53180
  H   3.88159  -1.49522   0.75830
  H   4.96183  -0.70072   1.37160
  O   4.22543  -0.60202   0.76810
  H   2.68031  -4.31632  -2.15051
  H   2.30851  -3.59882  -1.00673
  O   1.89647  -3.87302  -1.82604
  H   0.47278  -2.69662   4.36180
  H  -0.70081  -1.80002   4.04970
  O   0.20528  -1.77752   4.35750
  H  -4.27255  -2.22832  -1.91045
  H  -5.19842  -1.56612  -1.13210
  O  -4.30741  -1.89522  -1.01377
  H   0.53656  -4.68482   1.40840
  H  -0.60797  -4.77302   2.28560
  O  -0.41896  -4.67982   1.35190
