  83
# Step 9449, RM=C5H14NO[208] (21 atoms), C5H14NO[154] d=536.594pm (21 atoms), H2O4P[174] d=576.211pm (7 atoms), H2O4P[86] d=577.031pm (7 atoms), H2O[1107] d=401.492pm (3 atoms), H2O[795] d=414.305pm (3 atoms), H2O[1389] d=446.737pm (3 atoms), H2O[94] d=455.815pm (3 atoms), H2O[1247] d=456.061pm (3 atoms), H2O[887] d=468.693pm (3 atoms), H2O[376] d=474.465pm (3 atoms), H2O[899] d=479.296pm (3 atoms), H2O[642] d=486.877pm (3 atoms)
  C   0.88566   0.59945   0.03390
  C   0.58236   0.97325  -1.45770
  C  -1.40004   0.22805   0.65350
  C   0.25466  -0.02715   2.16220
  C  -0.02834  -1.63725   0.32410
  H   1.84496   0.08305  -0.00040
  H   1.06306   1.53365   0.56670
  H  -0.18764   0.43375  -3.08950
  H  -0.05674   1.85535  -1.41750
  H   1.48456   1.35205  -1.93790
  H  -1.51094   1.29075   0.86870
  H  -2.22894  -0.31475   1.10780
  H  -1.69124   0.33735  -0.39120
  H  -0.49524  -0.41445   2.85190
  H   0.27096   1.04215   2.37320
  H   1.22936  -0.42275   2.44790
  H   0.95856  -2.09555   0.38850
  H  -0.83474  -2.17535   0.82240
  H  -0.43644  -1.74745  -0.68060
  N  -0.04124  -0.26345   0.77600
  O  -0.14764   0.08055  -2.21390
  C   5.70836  -1.34735  -1.85820
  C   4.76636  -2.38965  -1.20550
  C   3.90186   0.44375  -2.36790
  C   4.46006  -1.28765  -3.86820
  C   6.06166   0.46305  -3.38930
  H   6.18286  -0.76175  -1.07080
  H   6.60256  -1.87315  -2.19310
  H   3.27996  -2.81545  -0.08920
  H   4.47016  -3.13915  -1.93950
  H   5.32876  -2.96345  -0.46890
  H   3.09776  -0.11675  -1.89110
  H   3.47386   1.02705  -3.18310
  H   4.19836   1.21775  -1.65990
  H   5.25316  -1.91845  -4.26960
  H   3.62226  -1.89855  -3.53190
  H   4.09626  -0.66545  -4.68590
  H   6.50496   0.98035  -2.53840
  H   6.84656  -0.17715  -3.79210
  H   5.81266   1.25945  -4.09060
  N   5.02036  -0.39935  -2.85040
  O   3.68146  -2.02095  -0.40640
  H  -4.41724   0.95735  -0.74170
  H  -6.58144   1.45965  -0.84550
  O  -4.40764   0.51115   0.08560
  O  -6.97194   0.69065  -0.47170
  O  -5.62634  -1.56225  -0.71420
  O  -6.04934  -0.55695   1.60930
  P  -5.76344  -0.18525   0.11320
  H   2.10526   6.01535  -2.97380
  H   2.63536   3.70255   0.21430
  O   1.80756   5.22935  -2.55300
  O   2.19606   3.74475  -0.61560
  O   3.95846   4.14795  -2.38980
  O   3.38576   6.00215  -0.73310
  P   2.83876   4.78145  -1.53620
  H  -1.44094   3.69225   0.69680
  H  -1.17394   4.22745   1.96900
  O  -0.72494   3.67205   1.33170
  H  -3.85974  -2.28365  -0.78790
  H  -3.00204  -2.86465   0.13680
  O  -3.00474  -2.71345  -0.80840
  H  -3.81374   2.31285  -2.89950
  H  -2.45764   2.40975  -3.19120
  O  -2.99084   2.10395  -2.45740
  H  -0.28084  -2.69275  -3.81590
  H   0.24066  -1.49215  -3.35820
  O   0.39846  -2.07975  -4.09710
  H  -3.69164   3.49475  -0.29060
  H  -2.79084   2.95375  -1.00140
  O  -2.74424   3.62715  -0.32270
  H  -2.13734  -3.04335  -2.15710
  H  -2.13184  -4.03805  -3.16100
  O  -1.56424  -3.32425  -2.87050
  H   1.02276   3.84165   2.05390
  H   1.21616   3.53585   3.37890
  O   1.76436   3.57055   2.59500
  H   0.26926  -5.36115  -1.59110
  H  -0.14504  -4.09065  -1.90160
  O   0.63166  -4.47995  -1.49970
  H  -2.47954  -4.07415   1.87500
  H  -2.62944  -3.02275   2.72590
  O  -3.03334  -3.29395   1.90150
