  83
# Step 1669, RM=C5H14NO[346] (21 atoms), C5H14NO[196] d=527.519pm (21 atoms), H2O4P[271] d=481.467pm (7 atoms), H2O4P[74] d=520.116pm (7 atoms), H2O[1317] d=427.417pm (3 atoms), H2O[978] d=427.437pm (3 atoms), H2O[205] d=445.568pm (3 atoms), H2O[604] d=460.901pm (3 atoms), H2O[1194] d=488.501pm (3 atoms), H2O[13] d=497.743pm (3 atoms), H2O[331] d=504.319pm (3 atoms), H2O[305] d=519.720pm (3 atoms), H2O[1143] d=524.853pm (3 atoms)
  C  -0.11806  -0.02728  -0.99017
  C   1.28134  -0.44718  -1.35947
  C   0.22014   1.48142   0.86013
  C  -0.66396  -0.71958   1.29793
  C  -2.01676   0.82052   0.22363
  H  -0.25876   0.82422  -1.65587
  H  -0.83226  -0.73918  -1.40377
  H   2.64594  -1.32948  -0.47077
  H   1.98824   0.38142  -1.31727
  H   1.41744  -0.93978  -2.32227
  H  -0.13226   2.37512   0.34523
  H   1.29714   1.34682   0.75983
  H   0.12034   1.79822   1.89823
  H  -1.02716  -1.66656   0.89883
  H   0.29854  -0.99318   1.73013
  H  -1.21376  -0.35918   2.16733
  H  -2.47876   1.06702   1.17953
  H  -2.79436   0.08682   0.01123
  H  -2.15246   1.63232  -0.49097
  N  -0.60866   0.35152   0.34443
  O   1.70344  -1.35895  -0.40937
  C  -1.66646  -2.87726  -4.90237
  C  -0.98396  -1.45472  -4.73077
  C  -0.94026  -4.05217  -2.84157
  C  -2.64016  -4.92897  -4.28377
  C  -3.07806  -2.95862  -2.86617
  H  -2.49776  -2.88218  -5.60737
  H  -0.96366  -3.33182  -5.60057
  H   0.69784  -0.74548  -5.23157
  H  -1.20656  -0.98118  -3.77457
  H  -1.37516  -0.76468  -5.47837
  H  -0.19206  -4.54158  -3.46497
  H  -0.51446  -3.20494  -2.30397
  H  -1.20676  -4.71792  -2.02067
  H  -3.19816  -5.51562  -3.55397
  H  -1.84396  -5.58349  -4.63827
  H  -3.32746  -4.77534  -5.11577
  H  -3.26946  -3.56983  -1.98417
  H  -4.02176  -2.78533  -3.38337
  H  -2.74356  -2.02027  -2.42377
  N  -2.03996  -3.66173  -3.73297
  O   0.46204  -1.54655  -4.78927
  H   3.26064   2.24532  -4.13507
  H   2.16384   3.94862  -0.61907
  O   3.31734   2.19102  -3.19837
  O   2.25484   3.13962  -1.08887
  O   2.83504   4.69432  -3.01167
  O   0.93294   3.15272  -3.17587
  P   2.36994   3.29572  -2.60637
  H   4.03464   1.77982  -0.47607
  H   7.04074  -1.03698  -0.17567
  O   4.82344   1.52502  -0.03287
  O   6.73604  -0.17218  -0.38287
  O   4.28634  -0.74508  -1.03937
  O   4.93204  -0.61618   1.42263
  P   5.19304   0.00732   0.00973
  H  -2.23516   1.13002  -3.37417
  H  -3.40056   0.48082  -3.67867
  O  -2.99746   0.82552  -2.88187
  H  -4.07026  -1.94669  -0.12167
  H  -4.26276  -2.33476   1.06873
  O  -3.47816  -2.33846   0.52043
  H   3.56544  -0.79218   2.63693
  H   2.97064   0.20752   3.36173
  O   2.89224  -0.74528   3.31573
  H  -0.34396   2.13172  -3.77497
  H  -0.45886   1.41302  -4.99127
  O  -0.98556   1.56792  -4.20707
  H  -0.38706   3.98812  -2.05727
  H  -0.92896   5.23832  -2.07817
  O  -1.19016   4.38832  -1.72397
  H   0.90574  -1.91385   5.24843
  H   1.40454  -0.99588   4.38523
  O   0.55184  -1.15068   4.79173
  H  -1.91856   0.26322   4.47473
  H  -1.22756  -0.87828   4.76023
  O  -2.13616  -0.66608   4.54663
  H   2.45954   2.49372   3.55053
  H   3.36194   2.25472   4.49033
  O   3.14834   1.83742   3.65583
  H  -5.18356   2.22122  -1.81767
  H  -3.85376   1.82742  -1.75507
  O  -4.38756   2.53082  -1.38557
