  83
# Step 9136, RM=C5H14NO[135] (21 atoms), C5H14NO[31] d=566.353pm (21 atoms), H2O4P[215] d=522.537pm (7 atoms), H2O4P[300] d=548.774pm (7 atoms), H2O[690] d=425.482pm (3 atoms), H2O[952] d=452.868pm (3 atoms), H2O[846] d=458.878pm (3 atoms), H2O[493] d=483.443pm (3 atoms), H2O[56] d=504.635pm (3 atoms), H2O[424] d=521.076pm (3 atoms), H2O[1391] d=532.593pm (3 atoms), H2O[1178] d=546.057pm (3 atoms), H2O[1611] d=549.246pm (3 atoms)
  C  -0.12782   0.43301  -0.97707
  C  -1.63332   0.00181  -0.95067
  C   0.73028  -1.46479   0.13103
  C   2.12598   0.37061  -0.18567
  C   0.56748   0.41921   1.47863
  H   0.20728   0.21861  -1.99187
  H  -0.08192   1.51681  -0.87037
  H  -3.14022   0.36051   0.16043
  H  -1.71792  -1.05929  -1.18527
  H  -2.07102   0.70501  -1.65917
  H   1.51478  -1.94409   0.71663
  H   0.75178  -1.87369  -0.87917
  H  -0.20962  -1.79989   0.56973
  H   2.21768   1.45631  -0.15717
  H   2.44128   0.05511  -1.18027
  H   2.85678  -0.02889   0.51753
  H   0.85458   1.47061   1.46543
  H   1.27158  -0.06709   2.15373
  H  -0.39382   0.17771   1.93233
  N   0.78018  -0.04869   0.08383
  O  -2.21472   0.27411   0.33043
  C  -2.76242   5.57916   0.09653
  C  -1.23042   5.69489  -0.24397
  C  -4.67472   5.07773   1.46173
  C  -2.52632   5.72757   2.41313
  C  -2.84922   3.56536   1.47483
  H  -3.26322   5.17368  -0.78267
  H  -3.17752   6.58659   0.06703
  H  -0.39842   4.49339  -1.43057
  H  -0.68272   6.05051   0.62883
  H  -1.00542   6.43888  -1.00807
  H  -5.02682   6.09143   1.27063
  H  -4.99852   4.77146   2.45643
  H  -5.20142   4.46713   0.72833
  H  -2.97812   5.37775   3.34133
  H  -2.67802   6.80680   2.39473
  H  -1.47982   5.48200   2.59373
  H  -1.79582   3.31934   1.34153
  H  -3.06352   3.13374   2.45253
  H  -3.44622   3.03716   0.73133
  N  -3.19392   4.98519   1.37073
  O  -0.74902   4.38739  -0.55947
  H   3.48288  -2.27619  -5.14887
  H   4.07698  -2.88869  -1.82767
  O   3.99488  -2.51339  -4.39707
  O   3.41338  -2.22989  -1.92397
  O   5.15848  -0.75929  -2.92837
  O   2.70248  -0.48159  -3.60777
  P   3.79248  -1.54309  -3.25247
  H   1.25518   4.24771   0.27243
  H   2.35888   6.59531   2.32053
  O   1.94828   4.04451   0.87403
  O   1.56828   6.09111   2.25443
  O   3.28678   4.35301   3.05983
  O   0.76668   3.86311   3.04103
  P   1.90798   4.61681   2.30803
  H   2.59768   2.34711  -2.74137
  H   2.25168   1.16151  -3.47827
  O   1.86358   2.00701  -3.25287
  H  -0.09132  -4.78999   1.96703
  H   0.53938  -4.43299   0.75873
  O  -0.32432  -4.33259   1.15913
  H  -1.83982   0.09881  -4.11957
  H  -0.63952   0.56741  -4.69667
  O  -1.41022   0.94101  -4.26927
  H  -3.16562  -1.43179  -4.12237
  H  -2.34492  -2.34979  -3.34797
  O  -2.24172  -1.61019  -3.94677
  H   0.96478   3.44895  -3.04507
  H  -0.42512   3.64421  -3.07097
  O   0.35478   4.17242  -2.90077
  H  -2.23142  -4.30419  -1.75407
  H  -2.64052  -4.61139  -3.02887
  O  -2.26812  -3.84479  -2.59307
  H  -2.91292   2.95831  -3.25267
  H  -1.72802   2.56301  -3.95327
  O  -2.11572   3.36191  -3.59607
  H   2.37228  -5.55759   1.08053
  H   2.97378  -4.83599   0.09233
  O   2.07148  -4.98469   0.37513
  H  -4.56682   1.98801  -1.19817
  H  -4.80092   2.30001  -2.52437
  O  -4.42502   2.74591  -1.76537
