  83
# Step 4185, RM=C5H14NO[1] (21 atoms), C5H14NO[74] d=564.004pm (21 atoms), H2O4P[236] d=525.473pm (7 atoms), H2O4P[245] d=543.340pm (7 atoms), H2O[620] d=409.261pm (3 atoms), H2O[652] d=416.479pm (3 atoms), H2O[976] d=442.807pm (3 atoms), H2O[156] d=465.321pm (3 atoms), H2O[502] d=466.109pm (3 atoms), H2O[1449] d=485.350pm (3 atoms), H2O[1353] d=487.812pm (3 atoms), H2O[1535] d=494.010pm (3 atoms), H2O[1356] d=506.087pm (3 atoms)
  C   0.62898   0.42954   0.73143
  C  -0.63642   0.94414   1.50013
  C  -0.18602  -1.46356  -0.55807
  C  -0.24652   0.58994  -1.62227
  C   1.81848  -0.27836  -1.17857
  H   1.15948  -0.27196   1.37523
  H   1.27968   1.29014   0.57623
  H  -2.37192   0.38264   1.99323
  H  -1.01112   1.86234   1.04783
  H  -0.29132   1.17814   2.50723
  H   0.23458  -2.04600   0.26173
  H  -1.25372  -1.32036  -0.39167
  H  -0.09782  -2.05972  -1.46637
  H   0.18418   1.59054  -1.65917
  H  -1.29992   0.75484  -1.39597
  H  -0.19612   0.13914  -2.61337
  H   1.86718  -0.51196  -2.24217
  H   2.41608  -0.98436  -0.60197
  H   2.46778   0.59174  -1.08077
  N   0.45978  -0.15426  -0.61497
  O  -1.63182  -0.06886   1.61713
  C   4.41848   2.39044  -2.59207
  C   4.00278   1.47974  -3.81927
  C   2.42058   3.77174  -2.26137
  C   3.93748   4.44844  -3.93967
  C   4.49088   4.59084  -1.55157
  H   5.50038   2.41664  -2.46207
  H   4.07078   1.97424  -1.64657
  H   2.41748   0.84294  -4.74887
  H   4.55918   1.87134  -4.67087
  H   4.42038   0.48294  -3.67697
  H   2.03578   4.78604  -2.15597
  H   1.70818   3.24904  -2.89957
  H   2.18598   3.19934  -1.36387
  H   3.27908   3.88754  -4.60297
  H   4.88278   4.44064  -4.48237
  H   3.61178   5.48824  -3.96467
  H   5.57968   4.54114  -1.56217
  H   4.35558   4.16944  -0.55557
  H   4.22538   5.64774  -1.52687
  N   3.85768   3.77624  -2.62917
  O   2.61428   1.33164  -3.96437
  H  -1.12842  -2.20780   2.30213
  H   0.08398  -1.34406   4.57573
  O  -0.94752  -3.06229   2.64953
  O  -0.80662  -1.62922   4.67053
  O   0.22718  -3.82583   4.86433
  O  -2.26932  -3.67055   4.72073
  P  -0.97462  -3.07563   4.15553
  H  -2.12192   0.63974   4.28063
  H  -2.78572   4.25194   4.06913
  O  -2.86402   1.11964   4.60103
  O  -2.44012   3.49894   3.62513
  O  -4.78612   2.63244   4.04543
  O  -3.51342   1.58334   2.27693
  P  -3.35752   2.20414   3.62813
  H   4.19838  -0.19346   0.90573
  H   3.56598   0.86804   1.73713
  O   3.71378  -0.07756   1.72303
  H   2.99808  -1.63954   2.24543
  H   2.95068  -2.61496   1.21783
  O   2.61038  -2.50344   2.10553
  H   2.96378   2.67674   2.43263
  H   3.02018   3.33814   1.35473
  O   3.30888   2.45094   1.56873
  H  -0.66622  -2.94884  -3.10837
  H  -0.25762  -2.07050  -4.22637
  O   0.05208  -2.82770  -3.72937
  H   3.36808  -3.83867  -0.61787
  H   4.07518  -2.54906  -0.73607
  O   3.50118  -3.02329  -0.13447
  H  -2.94962  -2.68852  -2.48447
  H  -2.93932  -3.97459  -2.91177
  O  -2.28092  -3.36751  -2.57387
  H  -4.86342   1.48364  -2.35727
  H  -4.56852   0.95794  -1.12667
  O  -4.33242   0.75654  -2.03217
  H  -3.18842   1.60604  -4.27957
  H  -3.32402   0.72904  -3.31637
  O  -2.69602   0.82334  -4.03267
  H  -1.64152  -5.56196  -0.49947
  H  -1.36042  -4.31410  -1.12617
  O  -0.92372  -4.92985  -0.53767
