  83
# Step 8225, RM=C5H14NO[235] (21 atoms), C5H14NO[118] d=535.228pm (21 atoms), H2O4P[311] d=488.691pm (7 atoms), H2O4P[170] d=624.053pm (7 atoms), H2O[501] d=405.747pm (3 atoms), H2O[916] d=406.454pm (3 atoms), H2O[423] d=469.465pm (3 atoms), H2O[30] d=484.033pm (3 atoms), H2O[1272] d=491.530pm (3 atoms), H2O[1290] d=502.912pm (3 atoms), H2O[1452] d=509.172pm (3 atoms), H2O[1221] d=531.573pm (3 atoms), H2O[1007] d=561.360pm (3 atoms)
  C  -0.35756   0.40634  -0.90661
  C  -0.52556  -1.03086  -1.43231
  C   1.73394   0.22184   0.22479
  C  -0.23336  -0.07016   1.54759
  C   0.39024   2.00724   0.71909
  H  -0.10656   1.14644  -1.66641
  H  -1.35896   0.80724  -0.74981
  H  -1.71166  -2.57816  -0.93841
  H  -1.05806  -0.97426  -2.38171
  H   0.45334  -1.43936  -1.68321
  H   2.15514   0.62944  -0.69421
  H   2.35814   0.50404   1.07259
  H   1.83454  -0.85646   0.10159
  H  -1.28256   0.17674   1.70979
  H  -0.18726  -1.15876   1.57899
  H   0.40844   0.21834   2.37999
  H  -0.63576   2.35144   0.84889
  H   0.79114   2.62724  -0.08281
  H   0.97524   2.19884   1.61859
  N   0.32824   0.58614   0.38339
  O  -1.20986  -1.89516  -0.52031
  C  -6.05346   0.02614   0.20349
  C  -5.29706   1.32574   0.24469
  C  -6.65306  -2.13396   0.92169
  C  -4.31566  -1.66046   0.35109
  C  -5.35046  -0.84586   2.33589
  H  -6.20516  -0.33096  -0.81511
  H  -7.07646   0.20564   0.53419
  H  -3.68806   1.98064  -0.53901
  H  -5.90326   2.01524  -0.34291
  H  -5.16546   1.84084   1.19619
  H  -7.64136  -1.80196   1.23959
  H  -6.80206  -2.57286  -0.06491
  H  -6.37106  -3.03126   1.47249
  H  -4.30896  -1.63896  -0.73871
  H  -3.47306  -1.02866   0.63229
  H  -4.06936  -2.68796   0.61889
  H  -5.24386  -1.72576   2.97049
  H  -6.15936  -0.24706   2.75449
  H  -4.51866  -0.14206   2.36489
  N  -5.56456  -1.17136   0.92389
  O  -3.98496   1.12954  -0.25521
  H   0.75854   4.82054  -3.00401
  H   3.44684   3.99304  -2.16441
  O   0.62494   3.89024  -2.98571
  O   2.96904   3.18444  -2.12421
  O   1.49304   1.61454  -3.40261
  O   2.64164   3.50444  -4.56491
  P   1.95204   3.08964  -3.25371
  H  -3.71766   6.89584  -0.57891
  H  -1.77066   4.11874  -2.14421
  O  -3.17636   6.15024  -0.39281
  O  -2.30996   3.97454  -1.38791
  O  -3.73786   5.60514  -2.72581
  O  -4.76406   4.25854  -0.84171
  P  -3.48296   4.99164  -1.34461
  H   2.52894  -1.44356   3.10739
  H   1.31964  -1.64296   3.70639
  O   1.79934  -2.05106   2.98569
  H   2.34444  -2.57526   1.54009
  H   3.67004  -3.00336   1.09069
  O   2.80244  -2.81326   0.73399
  H   4.28094  -3.07526  -1.66621
  H   3.19914  -2.58536  -0.90161
  O   3.54834  -2.47086  -1.78551
  H   2.78204   2.56544   3.51849
  H   3.81154   3.00544   2.64039
  O   3.21914   2.25834   2.72429
  H   3.65484   0.00154   4.38779
  H   3.51474   0.66154   3.16379
  O   3.39984  -0.22926   3.49449
  H   0.80164  -0.62366   5.70519
  H  -0.08966  -0.12536   4.67609
  O   0.37074  -0.93186   4.90799
  H  -0.59036   1.66064   5.72809
  H  -0.08196   2.29494   4.56429
  O  -0.50306   1.46674   4.79479
  H  -4.46156  -2.59186  -3.00811
  H  -3.27026  -2.80676  -2.54021
  O  -3.60906  -2.20066  -3.19901
  H   2.52774   0.40774  -5.81171
  H   2.02364   0.40394  -4.45081
  O   2.22144  -0.21566  -5.15311
