  83
# Step 6996, RM=C5H14NO[244] (21 atoms), C5H14NO[198] d=676.877pm (21 atoms), H2O4P[125] d=506.245pm (7 atoms), H2O4P[188] d=507.988pm (7 atoms), H2O[225] d=459.874pm (3 atoms), H2O[355] d=478.645pm (3 atoms), H2O[1444] d=486.392pm (3 atoms), H2O[1230] d=500.373pm (3 atoms), H2O[1660] d=569.190pm (3 atoms), H2O[33] d=579.530pm (3 atoms), H2O[377] d=608.751pm (3 atoms), H2O[1315] d=683.534pm (3 atoms), H2O[1614] d=700.090pm (3 atoms)
  C  -0.24709  -0.74666  -0.65921
  C  -0.19159   0.21964  -1.88611
  C  -0.80529   0.48104   1.45369
  C   0.53231  -1.54666   1.54259
  C   1.44921   0.36224   0.51819
  H  -1.28159  -1.08286  -0.58861
  H   0.15881  -1.69916  -0.99981
  H  -0.94299   1.92874  -2.32281
  H   0.85531   0.28004  -2.18381
  H  -0.79159  -0.19076  -2.69821
  H  -1.84009   0.13884   1.44389
  H  -0.49839   0.74064   2.46689
  H  -0.80689   1.38794   0.84909
  H   1.41101  -2.14646   1.30579
  H   0.62961  -1.17426   2.56239
  H  -0.33609  -2.20456   1.57669
  H   1.32031   1.28214  -0.05221
  H   2.14361  -0.18256  -0.12151
  H   2.02701   0.45894   1.43729
  N   0.19391  -0.36746   0.74059
  O  -0.85249   1.40054  -1.54441
  C   1.54981   7.26734  -0.46511
  C   0.23571   7.55744  -1.27631
  C   1.44431   4.83924  -0.84511
  C   3.40561   5.90024   0.28309
  C   3.02221   6.19604  -2.01871
  H   2.28541   8.04834  -0.65741
  H   1.34451   7.39294   0.59799
  H  -0.56769   7.17594  -2.95991
  H  -0.01269   8.61464  -1.18321
  H  -0.57719   6.99104  -0.82191
  H   2.08071   3.97274  -1.02491
  H   0.64401   4.92434  -1.58031
  H   0.93071   4.66504   0.10039
  H   4.10751   5.08864   0.09149
  H   4.00481   6.81064   0.27259
  H   3.03791   5.73804   1.29629
  H   3.52441   7.15694  -1.90641
  H   2.37191   6.19364  -2.89341
  H   3.79771   5.44934  -2.18911
  N   2.33901   6.06124  -0.72581
  O   0.34111   7.23354  -2.70721
  H   2.32481  -4.73896   0.73769
  H   3.42461  -2.15646  -0.64131
  O   1.88261  -4.50286  -0.05751
  O   2.84169  -2.47856  -1.30471
  O   2.18643  -4.78516  -2.59271
  O   4.15543  -4.63986  -1.02571
  P   2.72818  -4.03036  -1.26991
  H  -5.19999  -0.78206   1.72579
  H  -3.13299   0.92804  -0.24851
  O  -4.71369  -0.00246   1.52759
  O  -3.96169   1.33314  -0.42961
  O  -6.47159   1.10754   0.12249
  O  -5.19499  -0.81756  -0.87261
  P  -5.07389   0.42434   0.09989
  H  -4.00929  -2.24786  -0.34911
  H  -3.96859  -3.49796  -0.94071
  O  -3.41479  -2.99796  -0.34111
  H  -0.16329   1.57884  -4.57511
  H   0.61511   2.47934  -3.84631
  O  -0.29409   2.42114  -4.13971
  H   2.97293   3.26204  -3.59921
  H   2.79713   2.24754  -2.68411
  O   2.25328   2.68784  -3.33731
  H   4.38641  -1.35206   2.15419
  H   4.74731  -1.20106   0.83549
  O   4.42109  -1.91616   1.38169
  H   4.81869   0.47874   4.14709
  H   3.71735  -0.29966   4.02439
  O   4.47756  -0.11056   3.47429
  H   0.10460   0.33284  -6.69451
  H  -0.42496  -0.51986  -5.62661
  O   0.01227   0.32374  -5.74181
  H   4.43524  -4.54266   1.96269
  H   4.00060  -3.30376   2.15739
  O   3.70306  -4.16516   2.45019
  H   0.50087  -5.99346  -4.50411
  H   1.06864  -5.00976  -3.92011
  O   0.37081  -5.04766  -4.57411
  H   3.31551  -4.04876   4.13649
  H   3.10571  -2.79206   4.77409
  O   3.33831  -3.68676   5.02229
