  83
# Step 4111, RM=C5H14NO[72] (21 atoms), C5H14NO[6] d=546.149pm (21 atoms), H2O4P[28] d=566.637pm (7 atoms), H2O4P[342] d=576.283pm (7 atoms), H2O[4] d=373.918pm (3 atoms), H2O[606] d=442.188pm (3 atoms), H2O[260] d=446.565pm (3 atoms), H2O[1259] d=464.531pm (3 atoms), H2O[751] d=465.613pm (3 atoms), H2O[489] d=475.919pm (3 atoms), H2O[812] d=486.552pm (3 atoms), H2O[216] d=514.448pm (3 atoms), H2O[148] d=536.542pm (3 atoms)
  C  -0.92264   0.35560  -0.15217
  C  -0.20614   1.46750  -0.96927
  C   0.80716   0.17650   1.53294
  C   0.66936  -1.36510  -0.33949
  C  -0.97154  -1.38860   1.49276
  H  -1.52444   0.83530   0.61970
  H  -1.51694  -0.24000  -0.84510
  H   0.74636   1.88210  -2.55887
  H  -0.94594   2.13660  -1.40864
  H   0.40626   2.10600  -0.33258
  H   1.60566   0.73640   1.04627
  H   1.16036  -0.54350   2.27123
  H   0.33856   1.02920   2.02424
  H   1.40596  -0.82380  -0.93330
  H  -0.09014  -1.73190  -1.02988
  H   1.22576  -2.19500   0.09612
  H  -1.36324  -0.87820   2.37263
  H  -1.92464  -1.69770   1.06369
  H  -0.51044  -2.28560   1.90601
  N  -0.11134  -0.52120   0.63664
  O   0.62796   1.12760  -2.00241
  C   0.29006   5.71660   1.15540
  C  -1.16674   5.08660   1.16837
  C   1.77586   3.95160   2.13267
  C   0.67526   5.64760   3.49123
  C   2.53746   6.19410   2.14674
  H   0.70756   5.49730   0.17271
  H   0.27446   6.80390   1.08037
  H  -1.81604   3.36970   1.15498
  H  -1.76844   5.35850   0.30112
  H  -1.75834   5.32860   2.05131
  H   2.19786   3.68640   1.16331
  H   2.50336   3.72040   2.91073
  H   1.03206   3.22060   2.44943
  H   1.32486   5.28490   4.28773
  H   0.45366   6.71480   3.47543
  H  -0.24654   5.08630   3.64413
  H   3.28426   5.91970   1.40165
  H   3.05926   6.12760   3.10143
  H   2.27436   7.23360   1.95081
  N   1.30456   5.35390   2.20939
  O  -0.94934   3.72140   1.28971
  H   4.32166   0.58640  -0.19779
  H   4.94066  -2.53160   1.30018
  O   4.19826  -0.07330   0.46032
  O   5.40556  -1.84090   1.73662
  O   6.51816   0.44670   1.40291
  O   6.25066  -1.23230  -0.48429
  P   5.58396  -0.66670   0.82049
  H  -0.56934  -1.77950   5.12783
  H   2.05066   1.18580   5.00493
  O   0.26966  -1.39270   4.95433
  O   1.15216   1.01120   4.79053
  O   1.49126  -0.41820   6.89023
  O  -0.79394   0.48390   6.39523
  P   0.50736  -0.06060   5.74173
  H  -0.87654   0.12680  -3.28242
  H  -1.92024  -0.44150  -4.20942
  O  -1.59484  -0.50510  -3.31148
  H  -4.21354  -0.75720  -2.64390
  H  -2.86674  -0.98070  -2.62398
  O  -3.62334  -1.32750  -2.15124
  H  -4.13934   2.39740   0.64712
  H  -3.80994   3.63370   0.16001
  O  -3.32714   2.84720   0.41420
  H  -1.14174  -4.54710  -0.32853
  H  -1.75274  -4.52290   0.94477
  O  -1.94584  -4.20560   0.06258
  H   0.45256  -4.52100   1.65867
  H   0.99606  -4.95190   0.48801
  O   1.23756  -4.30820   1.15403
  H  -3.18864   2.70430  -1.38439
  H  -4.05534   2.54110  -2.52161
  O  -3.12894   2.69880  -2.33972
  H   3.73906   2.41750  -2.33045
  H   3.79666   2.86140  -1.10499
  O   4.12936   2.07000  -1.52846
  H   1.16236   3.35250  -4.85178
  H  -0.05274   2.88960  -4.28049
  O   0.85296   3.03080  -4.00500
  H  -2.59514   2.28500  -4.85336
  H  -2.20114   2.61410  -3.62540
  O  -1.74194   2.43390  -4.44574
