  83
# Step 3241, RM=C5H14NO[56] (21 atoms), C5H14NO[126] d=587.982pm (21 atoms), H2O4P[112] d=473.923pm (7 atoms), H2O4P[304] d=499.385pm (7 atoms), H2O[626] d=438.717pm (3 atoms), H2O[1187] d=449.974pm (3 atoms), H2O[1157] d=455.288pm (3 atoms), H2O[1257] d=480.824pm (3 atoms), H2O[1004] d=502.018pm (3 atoms), H2O[24] d=502.248pm (3 atoms), H2O[451] d=543.191pm (3 atoms), H2O[939] d=548.341pm (3 atoms), H2O[34] d=549.326pm (3 atoms)
  C  -0.57775  -0.62518  -0.51163
  C  -0.93705  -1.36608   0.81267
  C   0.19855   1.43612   0.37557
  C   0.62735   0.88872  -1.88503
  C   1.82455  -0.17638  -0.21413
  H  -1.42965  -0.03718  -0.85313
  H  -0.45835  -1.28718  -1.36943
  H  -2.07135  -1.08418   2.29167
  H  -1.52895  -2.26568   0.64407
  H  -0.00485  -1.78768   1.18847
  H  -0.78515   1.89802   0.29127
  H   0.23515   1.19172   1.43717
  H   0.82485   2.31792   0.24067
  H  -0.32445   1.12072  -2.36303
  H   1.12435   0.26572  -2.62853
  H   1.23715   1.79132  -1.92403
  H   2.66125   0.47402  -0.46913
  H   1.93455  -0.54148   0.80697
  H   1.89065  -0.95968  -0.96913
  N   0.52335   0.38252  -0.53773
  O  -1.51895  -0.52198   1.77027
  C  -4.30765   1.46322   1.54257
  C  -4.00745   2.92572   1.98447
  C  -6.53935   1.61362   0.43117
  C  -6.35645   1.26962   2.80707
  C  -5.81165  -0.53038   1.27477
  H  -3.71055   0.82952   2.19837
  H  -3.96725   1.27592   0.52417
  H  -4.57585   4.63562   2.00657
  H  -3.78745   2.90552   3.05187
  H  -3.09245   3.22762   1.47487
  H  -6.58735   2.69162   0.58487
  H  -7.58015   1.29892   0.50657
  H  -6.15805   1.41512  -0.57053
  H  -7.39595   0.94712   2.74687
  H  -5.98525   0.79272   3.71417
  H  -6.62585   2.31842   2.93187
  H  -5.13365  -1.12838   1.88377
  H  -5.47085  -0.70088   0.25357
  H  -6.81905  -0.94638   1.26647
  N  -5.73185   0.93262   1.52047
  O  -4.99785   3.83882   1.72357
  H  -3.88465   3.68187  -3.34263
  H  -4.89635   0.42134  -2.91153
  O  -4.44135   2.98034  -3.05703
  O  -4.16815   0.51558  -2.32463
  O  -2.35375   1.74313  -3.75373
  O  -2.74685   2.39145  -1.27333
  P  -3.46865   1.91205  -2.60213
  H   0.14785  -3.24618   3.42047
  H   4.21795  -3.46248   3.11217
  O   1.01865  -2.89308   3.39607
  O   3.44915  -2.94028   2.97137
  O   1.81325  -3.58638   1.14307
  O   2.26825  -5.15968   3.11407
  P   2.13885  -3.64128   2.66137
  H   0.37625  -1.91678  -3.88273
  H  -0.90685  -1.63698  -4.29443
  O  -0.49465  -2.27578  -3.71283
  H   0.41925  -5.23108  -0.53523
  H   0.90365  -4.07198  -0.08193
  O   0.51435  -4.35508  -0.90933
  H  -0.37445   4.28528   1.00177
  H  -0.79015   4.54860   2.31867
  O  -0.05085   4.12005   1.88737
  H  -1.72825   3.86482  -0.65893
  H  -1.71365   5.33609  -0.78913
  O  -1.19465   4.62226  -0.41863
  H   3.16435   4.84825   0.46437
  H   2.81925   3.61014   0.65527
  O   2.69005   4.21546  -0.07493
  H   3.55365   3.03269  -1.20643
  H   4.72525   2.60799  -1.82343
  O   3.78745   2.57095  -2.01173
  H   1.60785   4.81007  -1.18703
  H   0.18535   5.00330  -1.18733
  O   0.92145   5.08830  -1.79333
  H  -2.21535   0.17932  -4.58153
  H  -1.23415   0.28192  -5.67593
  O  -1.74005  -0.37618  -5.19933
  H  -4.18915  -1.74948   4.29927
  H  -2.81545  -1.64438   4.85147
  O  -3.29175  -1.55978   4.02547
