  83
# Step 8808, RM=C5H14NO[95] (21 atoms), C5H14NO[229] d=575.116pm (21 atoms), H2O4P[83] d=486.914pm (7 atoms), H2O4P[182] d=539.884pm (7 atoms), H2O[85] d=420.004pm (3 atoms), H2O[320] d=424.232pm (3 atoms), H2O[127] d=440.065pm (3 atoms), H2O[1181] d=456.956pm (3 atoms), H2O[444] d=461.563pm (3 atoms), H2O[734] d=472.696pm (3 atoms), H2O[739] d=478.066pm (3 atoms), H2O[1384] d=491.559pm (3 atoms), H2O[9] d=508.553pm (3 atoms)
  C   0.97798  -0.01012   0.03325
  C   0.83548  -1.36361   0.75245
  C  -0.95402  -0.31789  -1.49985
  C   0.36738   1.59852  -1.38745
  C  -1.13712   1.07693   0.48245
  H   1.42928   0.64655   0.77705
  H   1.80338  -0.23667  -0.64165
  H  -0.59832  -1.96468   1.89935
  H   0.57408  -2.12096   0.01345
  H   1.86348  -1.71647   0.83455
  H  -1.33152  -1.17886  -0.94815
  H  -0.34762  -0.63699  -2.34745
  H  -1.89802   0.11605  -1.82935
  H   1.07978   1.24518  -2.13285
  H  -0.32232   2.32573  -1.81585
  H   0.96478   2.23458  -0.73425
  H  -1.99102   1.69310   0.20075
  H  -1.49162   0.35694   1.22005
  H  -0.61992   1.82764   1.08005
  N  -0.20062   0.58737  -0.58145
  O   0.16408  -1.41605   2.00325
  C  -6.00772   1.59257   2.30895
  C  -5.95142   1.04711   0.86265
  C  -3.97562   0.85550   3.51625
  C  -3.94672   2.90817   2.30035
  C  -5.13172   2.72654   4.31705
  H  -6.53602   0.78975   2.82305
  H  -6.75522   2.38544   2.33395
  H  -4.76572  -0.06192  -0.11685
  H  -5.56292   1.81665   0.19555
  H  -6.96802   0.77581   0.57775
  H  -2.99662   1.07393   3.94275
  H  -4.42512   0.18807   4.25145
  H  -3.69012   0.23635   2.66575
  H  -3.00112   2.95742   2.84025
  H  -3.72922   2.75078   1.24395
  H  -4.34042   3.92452   2.29025
  H  -5.54952   3.68814   4.01895
  H  -5.89652   2.18784   4.87655
  H  -4.23642   2.81322   4.93275
  N  -4.82272   2.02585   3.06905
  O  -5.08382  -0.03968   0.77275
  H  -4.02422  -1.96221   0.44145
  H  -2.04562  -5.32735  -0.16265
  O  -3.97172  -2.83370   0.09305
  O  -2.02262  -4.39182  -0.25125
  O  -3.64912  -4.95233   1.60895
  O  -2.03372  -3.01262   1.73885
  P  -2.99012  -3.81729   0.75675
  H   3.00588  -6.16593  -1.95645
  H   0.55088  -4.91353  -1.11315
  O   2.95208  -5.54878  -2.66345
  O   1.38278  -4.47936  -1.05775
  O   1.06838  -4.28257  -3.60555
  O   2.92028  -3.03919  -2.39845
  P   2.05288  -4.36253  -2.40445
  H   3.48348   1.91115   2.38545
  H   3.68988   1.63043   1.12745
  O   3.56388   1.08700   1.90535
  H   2.51428  -0.40321  -3.55665
  H   2.04888  -1.74938  -3.27145
  O   1.76258  -0.96619  -3.74135
  H  -0.69342   2.51475   3.78065
  H   0.28688   1.99781   4.36855
  O  -0.52052   1.60788   4.03355
  H  -0.62622   0.08225   4.44645
  H  -0.01272  -0.79474   3.77905
  O  -0.63892  -0.87343   4.49875
  H   4.42438  -0.74982  -1.68435
  H   3.80318  -1.91247  -1.41765
  O   4.34158  -1.30574  -0.90955
  H   3.86658   3.55814  -0.30805
  H   3.76368   2.40547  -1.21565
  O   3.91378   2.60226  -0.29105
  H  -5.08722  -0.23630  -2.35605
  H  -4.12852   0.67835  -2.18095
  O  -4.43152  -0.07705  -1.67715
  H   1.87808   5.08339   1.38225
  H   2.28438   3.86520   2.14785
  O   1.51368   4.28634   1.76715
  H  -1.15782   4.28176   2.36565
  H   0.18298   4.10099   2.58485
  O  -0.61452   4.01537   3.10725
