  74
# Step 3, RM=C5H14NO[195] (21 atoms), C5H14NO[93] d=535.938pm (21 atoms), C2H3O2[190] d=462.759pm (7 atoms), C2H3O2[131] d=497.981pm (7 atoms), H2O[190] d=395.546pm (3 atoms), H2O[387] d=491.552pm (3 atoms), H2O[378] d=538.773pm (3 atoms), H2O[943] d=551.188pm (3 atoms), H2O[416] d=595.042pm (3 atoms), H2O[675] d=662.683pm (3 atoms)
  C  -0.58487  -0.77761  -0.02674
  C  -1.81467   0.11309  -0.05904
  C   0.91313   0.12129  -1.68144
  C   1.07813   0.96379   0.61866
  C   1.66353  -1.29191   0.15656
  H  -0.70477  -1.28381   0.93106
  H  -0.86027  -1.53251  -0.76324
  H  -2.06397   0.36189   1.73346
  H  -2.70187  -0.52001  -0.05074
  H  -1.92927   0.77989  -0.91364
  H   0.81133  -0.76151  -2.31264
  H   0.09453   0.78129  -1.96854
  H   2.70033  -1.01571  -0.03584
  H   1.59053  -2.28001  -0.29774
  H   1.79413   0.68219  -1.99344
  H   1.06543   0.72969   1.68316
  H   2.10723   1.28029   0.44826
  H   0.41333   1.79429   0.38136
  H   1.53943  -1.52811   1.21336
  N   0.76833  -0.18651  -0.20324
  O  -1.85787   0.97569   1.04516
  C  -0.99237   2.63809   3.47516
  C  -2.50597   2.88769   3.61576
  C   1.50733   2.74009   3.94586
  C  -0.13807   2.43219   5.64586
  C   0.13333   4.54409   4.61336
  H  -0.87167   1.55859   3.38476
  H  -0.58837   2.99069   2.52616
  H  -2.77417   4.52459   4.62846
  H  -3.00237   2.59349   2.69096
  H  -2.96107   2.32979   4.43416
  H   1.51363   1.65439   4.04346
  H  -0.26917   1.35179   5.58446
  H   1.88373   2.93929   2.94256
  H   0.71813   2.60509   6.29796
  H   2.21343   3.09979   4.69426
  H  -0.99777   2.91619   6.10926
  H   1.07333   4.93059   5.00726
  H  -0.60357   5.04059   5.24466
  H   0.13553   5.14159   3.70176
  N   0.10973   3.10709   4.33506
  O  -2.89777   4.21909   3.74286
  C   0.91323   3.71939  -2.60094
  C   0.10073   2.83319  -3.61714
  H   0.26073   3.32499  -4.57665
  H   0.44523   1.80509  -3.72919
  H  -0.95887   2.83669  -3.36144
  O   1.52323   4.69269  -3.07794
  O   0.87753   3.47059  -1.37904
  C  -2.87327  -0.61291   3.96616
  C  -2.51877  -1.07491   5.34636
  H  -1.87757  -0.41821   5.93426
  H  -2.07807  -2.07181   5.35966
  H  -3.42987  -1.16911   5.93736
  O  -3.94797   0.00999   3.78196
  O  -2.11607  -0.86201   2.98526
  H   0.46343  -2.07171   3.30066
  H  -0.86857  -1.95351   2.90166
  O  -0.22127  -2.65501   2.97316
  H   0.41713  -4.01541   1.98276
  H   0.22363  -5.18051   1.07066
  O   0.91233  -4.62441   1.43496
  H   1.39723   4.43869  -0.00824
  H   2.05053   5.62569  -0.09634
  O   1.73093   5.07829   0.62086
  H   3.35243  -3.05001   2.35526
  H   2.63133  -3.97061   1.51516
  O   3.49003  -3.89731   1.93176
  H   3.94333  -0.66241  -5.10363
  H   3.83023  -0.95771  -3.67103
  O   4.16103  -0.27561  -4.25553
  H  -1.40037  -5.94261   0.19916
  H  -1.51887  -7.02681   1.14426
  O  -0.83307  -6.53401   0.69376
