  83
# Step 8650, RM=C5H14NO[77] (21 atoms), C5H14NO[257] d=559.939pm (21 atoms), H2O4P[101] d=530.462pm (7 atoms), H2O4P[145] d=588.531pm (7 atoms), H2O[898] d=395.822pm (3 atoms), H2O[764] d=405.725pm (3 atoms), H2O[356] d=446.666pm (3 atoms), H2O[61] d=459.596pm (3 atoms), H2O[557] d=494.431pm (3 atoms), H2O[634] d=512.548pm (3 atoms), H2O[921] d=517.030pm (3 atoms), H2O[1503] d=526.148pm (3 atoms), H2O[183] d=539.300pm (3 atoms)
  C  -0.22497  -0.30330   0.97826
  C  -1.66657  -0.56700   0.47556
  C   1.01381  -0.50720  -1.12454
  C   0.16233   1.64570  -0.32904
  C   1.94577   0.67900   0.84556
  H  -0.41303   0.15510   1.94916
  H   0.21052  -1.26690   1.24296
  H  -2.63265  -1.25040  -0.99594
  H  -2.30655   0.31460   0.43896
  H  -2.14839  -1.26060   1.16476
  H   0.29603  -0.34380  -1.92844
  H   1.95857  -0.15250  -1.53654
  H   1.12871  -1.57900  -0.96314
  H   0.82579   2.34680  -0.83534
  H  -0.75642   1.43420  -0.87604
  H  -0.15749   2.09830   0.60966
  H   1.63311   1.07410   1.81216
  H   2.38964  -0.26760   1.15366
  H   2.61219   1.37600   0.33746
  N   0.71108   0.34440   0.06636
  O  -1.71247  -1.18130  -0.79214
  C  -1.71346  -0.63200   5.27356
  C  -0.63622  -1.68240   4.97946
  C  -3.59580  -1.27660   3.74176
  C  -3.98285   0.12150   5.72566
  C  -3.43852  -2.22650   5.87266
  H  -1.48740   0.27040   4.70556
  H  -1.54156  -0.32250   6.30436
  H   0.19934  -2.60480   3.43856
  H   0.27016  -1.26070   5.41396
  H  -0.80196  -2.54620   5.62326
  H  -3.11644  -2.21200   3.45306
  H  -4.64352  -1.50670   3.54826
  H  -3.40940  -0.49000   3.01056
  H  -5.03497  -0.15530   5.79276
  H  -3.77682   1.07660   5.24246
  H  -3.68861   0.36450   6.74666
  H  -2.79969  -3.05210   5.55876
  H  -4.47469  -2.55990   5.81516
  H  -3.22144  -2.07450   6.92986
  N  -3.16140  -0.96520   5.13386
  O  -0.59022  -2.10910   3.59326
  H   3.79818  -2.31340   0.78666
  H   4.69526  -1.98160   2.90356
  O   3.09114  -2.89700   0.99436
  O   3.94718  -2.27350   3.39216
  O   4.15037  -4.66030   2.66356
  O   1.82458  -3.62520   3.11826
  P   3.24877  -3.33650   2.51256
  H   0.44948   5.77000  -2.18984
  H   2.75594   7.37380  -0.85794
  O   1.38707   5.71080  -2.15774
  O   3.02681   6.58100  -0.43164
  O   0.76433   5.49900   0.29026
  O   2.71540   4.07920  -0.59334
  P   2.00417   5.48210  -0.70314
  H  -2.31034   2.54920   1.15776
  H  -2.61934   3.62990   0.33676
  O  -2.86036   2.70510   0.39006
  H  -1.64359   2.97450   3.58206
  H  -0.62441   3.05450   2.54286
  O  -1.40968   2.55050   2.75636
  H   0.71939   4.50030   1.56736
  H   1.83455   3.78910   2.03826
  O   0.88636   3.77430   2.16836
  H  -3.78421   2.70630  -2.69574
  H  -3.30335   2.30750  -1.44364
  O  -3.47502   1.89600  -2.29074
  H   4.75464   0.69550  -1.57254
  H   5.36286  -0.09430  -0.62024
  O   4.73050  -0.22910  -1.32604
  H   3.92744  -1.40430  -2.18694
  H   4.59737  -1.98250  -3.19224
  O   3.70182  -2.04610  -2.86024
  H  -4.97005  -2.82410  -1.96224
  H  -4.59448  -2.20810  -0.77274
  O  -4.31560  -2.18170  -1.68804
  H  -0.90633   5.16120  -0.15904
  H  -1.74604   5.15450  -1.28074
  O  -1.81065   4.91680  -0.35574
  H  -3.86981   0.32930  -2.97894
  H  -4.16862  -0.96200  -2.80854
  O  -4.09848  -0.38740  -3.57084
