  83
# Step 9700, RM=C5H14NO[63] (21 atoms), C5H14NO[170] d=612.363pm (21 atoms), H2O4P[236] d=495.662pm (7 atoms), H2O4P[299] d=520.061pm (7 atoms), H2O[1555] d=377.633pm (3 atoms), H2O[688] d=413.778pm (3 atoms), H2O[329] d=437.577pm (3 atoms), H2O[510] d=446.275pm (3 atoms), H2O[718] d=455.141pm (3 atoms), H2O[1176] d=487.620pm (3 atoms), H2O[1348] d=496.807pm (3 atoms), H2O[736] d=502.163pm (3 atoms), H2O[341] d=503.181pm (3 atoms)
  C   0.20611   1.01345   0.34048
  C   1.32191   1.09505  -0.68402
  C  -1.81939  -0.01872   1.20598
  C  -1.32599  -0.48210  -1.01012
  C  -0.04089  -1.35076   0.75548
  H   0.70021   1.16080   1.30078
  H  -0.35009   1.93156   0.15108
  H   2.61621  -0.13664  -0.03072
  H   1.94911   1.95729  -0.45762
  H   0.91371   1.47080  -1.62232
  H  -1.50889   0.15861   2.23568
  H  -2.55409  -0.82291   1.24728
  H  -2.37599   0.85672   0.87138
  H  -1.89589  -1.39852  -1.16312
  H  -1.97329   0.33117  -1.33812
  H  -0.54399  -0.56060  -1.76542
  H   0.66241  -1.65539  -0.01952
  H  -0.65519  -2.20476   1.04098
  H   0.55141  -1.09541   1.63418
  N  -0.71289  -0.19125   0.29428
  O   2.15021  -0.02495  -0.84522
  C   5.55791  -3.86783  -1.57792
  C   5.41901  -4.87213  -0.45422
  C   3.42501  -2.77663  -1.48912
  C   4.73751  -2.35473  -3.43262
  C   3.80951  -4.45603  -3.02982
  H   6.10791  -3.00423  -1.20402
  H   6.18411  -4.32033  -2.34682
  H   5.15151  -4.24243   1.32258
  H   6.44081  -4.98093  -0.09062
  H   4.96981  -5.81733  -0.75912
  H   2.61771  -2.38403  -2.10742
  H   4.01461  -2.00153  -0.99942
  H   2.88021  -3.45553  -0.83312
  H   5.42691  -2.76343  -4.17142
  H   5.30861  -1.49853  -3.07352
  H   3.94201  -1.93953  -4.05142
  H   2.86021  -4.17393  -3.48522
  H   4.46831  -4.95633  -3.73972
  H   3.53671  -5.23863  -2.32192
  N   4.43821  -3.36023  -2.37942
  O   4.55541  -4.45523   0.62088
  H  -3.83269   3.01933  -1.26322
  H  -0.64969   3.61860  -2.32542
  O  -3.31919   3.64413  -1.74232
  O  -1.16929   2.87060  -2.55802
  O  -2.72529   4.01487  -4.17992
  O  -3.19579   1.64995  -3.27462
  P  -2.57839   3.06050  -2.96072
  H  -1.53079   4.53099   4.37861
  H  -1.22649   2.20257   4.42663
  O  -0.95419   4.66380   3.64826
  O  -0.37419   2.15153   4.03354
  O   1.02251   3.58113   2.40851
  O   1.27311   3.93453   4.92440
  P   0.19191   3.58292   3.75933
  H   4.26521  -0.06920   1.03176
  H   3.41481   0.56089   1.91211
  O   3.43191  -0.27910   1.45347
  H  -0.86589  -3.66563  -0.95412
  H  -0.44729  -4.61733  -1.89882
  O  -0.09739  -3.81873  -1.50392
  H  -1.61539  -3.13603   3.48208
  H  -1.69769  -1.78133   3.55248
  O  -0.98459  -2.41613   3.48388
  H  -2.99919  -3.25903  -0.64632
  H  -2.89389  -4.05873   0.47558
  O  -2.31199  -3.78073  -0.23182
  H   3.55331   2.74361   1.58561
  H   2.52821   2.44365   2.54133
  O   3.37061   2.08789   2.25858
  H   3.03881  -1.64047   2.34111
  H   3.63751  -1.80871   3.58165
  O   3.08001  -2.32985   3.00391
  H  -4.34699  -1.34813  -1.61182
  H  -4.85929  -2.31761  -0.85082
  O  -4.14439  -2.27514  -1.48592
  H  -3.23739  -2.17728  -3.17562
  H  -2.78659  -1.27837  -4.21232
  O  -2.51739  -2.10002  -3.80162
  H  -0.76099  -2.63088  -4.02882
  H   0.22501  -3.16621  -3.33972
  O   0.15821  -2.81089  -4.22602
