  83
# Step 9508, RM=C5H14NO[169] (21 atoms), C5H14NO[335] d=566.173pm (21 atoms), H2O4P[261] d=517.007pm (7 atoms), H2O4P[186] d=535.569pm (7 atoms), H2O[735] d=389.787pm (3 atoms), H2O[1459] d=459.934pm (3 atoms), H2O[1282] d=463.675pm (3 atoms), H2O[1348] d=479.403pm (3 atoms), H2O[736] d=484.786pm (3 atoms), H2O[118] d=491.097pm (3 atoms), H2O[42] d=507.098pm (3 atoms), H2O[1206] d=526.592pm (3 atoms), H2O[510] d=528.418pm (3 atoms)
  C  -1.05302   0.20991   0.07869
  C  -1.31642  -0.60179  -1.21271
  C   1.25248   1.03461  -0.13751
  C   0.85038  -1.07059   0.88159
  C   0.12638   0.90361   1.99519
  H  -1.31692   1.24381  -0.14361
  H  -1.82592  -0.04119   0.80519
  H   0.10188  -1.49979  -1.97951
  H  -2.12992  -0.12579  -1.76021
  H  -1.72402  -1.59929  -1.04821
  H   1.70018   0.45741  -0.94661
  H   2.08618   1.37701   0.47549
  H   0.85318   1.96391  -0.54361
  H   0.98348  -1.75849   0.04659
  H   1.85268  -1.11479   1.30759
  H   0.34068  -1.58449   1.69659
  H  -0.03282   1.95641   1.76219
  H   0.95918   0.66731   2.65749
  H  -0.71682   0.51281   2.56459
  N   0.32518   0.27931   0.66119
  O  -0.25072  -0.63029  -2.09221
  C   0.96418   2.61181  -4.10961
  C   2.17338   3.45741  -4.51661
  C  -1.10882   3.76841  -4.66421
  C  -0.02192   2.43261  -6.30641
  C  -1.00722   1.31861  -4.35551
  H   0.65508   2.93411  -3.11531
  H   1.48708   1.65991  -4.01761
  H   3.66898   2.53261  -5.28651
  H   2.83638   3.47331  -3.65151
  H   1.77188   4.45431  -4.69821
  H  -2.05192   3.73871  -5.20991
  H  -1.35592   3.87281  -3.60771
  H  -0.60892   4.69271  -4.95401
  H   0.51918   3.29101  -6.70431
  H  -0.98992   2.32391  -6.79561
  H   0.51878   1.50601  -6.49941
  H  -0.47132   0.37581  -4.46471
  H  -1.98302   1.24371  -4.83541
  H  -1.37892   1.39611  -3.33371
  N  -0.28462   2.53041  -4.88551
  O   2.88488   2.90681  -5.65831
  H  -6.84862   1.46521   1.77169
  H  -4.84212  -0.91279   0.73839
  O  -6.13872   1.27731   2.35839
  O  -5.06252  -0.03889   0.47119
  O  -4.27792   2.33781   1.09269
  O  -3.71022   0.32621   2.63319
  P  -4.78592   0.90441   1.63939
  H   4.65498  -2.02359  -1.12851
  H   7.27478  -0.63789  -0.13451
  O   5.08108  -1.62809  -0.38991
  O   6.81438   0.14321  -0.38241
  O   4.84198   0.28121  -1.95851
  O   4.48608   0.72331   0.46559
  P   5.31998  -0.12179  -0.54971
  H   1.27218  -3.48299  -2.83111
  H   0.64558  -3.67449  -1.47011
  O   0.65718  -3.07859  -2.21911
  H  -1.50292   5.09243  -1.37651
  H  -1.42362   4.22674  -0.27101
  O  -1.43292   4.14987  -1.22511
  H  -2.90372  -1.09259   3.14209
  H  -3.23362  -2.29109   2.44909
  O  -2.70892  -2.02769   3.20509
  H   0.46988   5.39572   1.07549
  H   0.08358   4.51140   1.87869
  O   0.80048   4.51344   1.24449
  H   2.05888   4.23243  -0.34011
  H   2.01138   4.98064  -1.44341
  O   2.24768   4.07049  -1.26451
  H  -1.83342   4.03138   2.12839
  H  -2.84512   3.55668   1.22279
  O  -2.17912   4.24321   1.26129
  H  -2.65672   3.31381  -1.74391
  H  -4.09102   3.67421  -1.93481
  O  -3.45602   2.99541  -2.16331
  H  -0.12912  -4.33069   3.18629
  H   0.87268  -5.26039   2.69069
  O   0.76008  -4.32039   2.83209
  H   2.28638   3.68961   2.13309
  H   2.52848   3.45731   3.50209
  O   3.02558   3.43331   2.68449
