  83
# Step 8089, RM=C5H14NO[78] (21 atoms), C5H14NO[179] d=641.263pm (21 atoms), H2O4P[171] d=499.066pm (7 atoms), H2O4P[285] d=514.726pm (7 atoms), H2O[1589] d=456.922pm (3 atoms), H2O[800] d=466.141pm (3 atoms), H2O[337] d=471.370pm (3 atoms), H2O[818] d=475.558pm (3 atoms), H2O[410] d=476.612pm (3 atoms), H2O[1204] d=480.181pm (3 atoms), H2O[1025] d=488.682pm (3 atoms), H2O[1036] d=494.357pm (3 atoms), H2O[426] d=526.436pm (3 atoms)
  C   0.41133  -0.68699  -0.68670
  C   0.99563   0.49001  -1.46250
  C   0.66893   0.45961   1.48400
  C  -1.49147   0.18181   0.48860
  C  -0.42957  -1.66899   1.50040
  H  -0.37167  -1.08219  -1.33370
  H   1.15013  -1.48359  -0.59850
  H   0.52103   2.12481  -2.24460
  H   1.79373   1.02051  -0.94320
  H   1.28973   0.06971  -2.42430
  H   0.63593   1.44041   1.00950
  H   0.21263   0.63631   2.45800
  H   1.68343   0.10031   1.65660
  H  -2.04097  -0.28549  -0.32860
  H  -1.51457   1.26661   0.38480
  H  -2.05027   0.09351   1.42020
  H   0.51403  -2.16799   1.72100
  H  -0.91137  -1.45309   2.45400
  H  -0.90537  -2.46939   0.93380
  N  -0.16847  -0.41979   0.66850
  O   0.03083   1.42471  -1.84140
  C  -4.13497   0.19321  -4.31320
  C  -5.47537  -0.20779  -4.97740
  C  -3.19327   1.30451  -6.25380
  C  -1.89727   0.75541  -4.24330
  C  -2.45857  -0.96009  -5.73300
  H  -4.29127   1.15321  -3.82110
  H  -3.94357  -0.58029  -3.56940
  H  -6.36117  -1.25309  -6.24300
  H  -6.25517  -0.43969  -4.25200
  H  -5.87057   0.69221  -5.44860
  H  -4.04477   1.13861  -6.91370
  H  -3.41517   2.23971  -5.73970
  H  -2.27637   1.37741  -6.83860
  H  -1.45867   0.03711  -3.55060
  H  -2.08287   1.61161  -3.59480
  H  -1.20257   1.18401  -4.96560
  H  -2.38977  -1.61759  -4.86630
  H  -3.13577  -1.36669  -6.48420
  H  -1.45357  -0.89379  -6.14960
  N  -2.95707   0.27581  -5.15980
  O  -5.46417  -1.22579  -5.94710
  H   4.72204   0.79631  -1.81330
  H   4.55112  -1.84329   1.33990
  O   4.50351  -0.03839  -1.44040
  O   4.75547  -1.75849   0.42630
  O   6.46546   0.09251   0.12280
  O   4.22637   0.63341   1.07820
  P   4.99739  -0.24309   0.02220
  H   0.33433  -2.83629  -4.30510
  H   0.89743  -3.69999  -1.73370
  O  -0.38027  -2.82319  -3.69460
  O   0.31383  -4.41089  -1.92760
  O  -0.78217  -5.36759  -4.01550
  O  -2.09477  -3.96019  -2.38820
  P  -0.72627  -4.12959  -3.00240
  H   0.59463   4.49681  -0.44950
  H  -0.29987   4.46731   0.62170
  O   0.64933   4.51041   0.50600
  H  -2.73647  -3.52199  -0.86110
  H  -3.41597  -4.23789   0.33330
  O  -3.15487  -3.38389  -0.01130
  H   3.78453  -1.90169  -2.21280
  H   3.01378  -2.40569  -3.23600
  O   3.15070  -2.61209  -2.31140
  H  -2.65467   3.79101   1.08260
  H  -2.29627   5.10811   0.65960
  O  -2.07007   4.20281   0.44640
  H  -5.33997  -1.47819   0.41440
  H  -4.10237  -1.88099   0.74760
  O  -4.55847  -1.03949   0.75070
  H  -4.54967   0.53641  -0.33080
  H  -5.21227   0.61081  -1.45170
  O  -4.51877   1.14701  -1.06740
  H   2.23388   2.87991  -3.20830
  H   1.05475   3.01241  -4.02730
  O   1.41958   3.38281  -3.22370
  H   1.08321   3.43471   3.19400
  H   1.59213   4.12441   1.98750
  O   1.90760   3.66201   2.76390
  H  -4.02727   2.63941  -1.43110
  H  -2.95607   3.57341  -1.06930
  O  -3.64727   3.46801  -1.72310
