  83
# Step 8386, RM=C5H14NO[96] (21 atoms), C5H14NO[279] d=645.399pm (21 atoms), H2O4P[36] d=480.395pm (7 atoms), H2O4P[50] d=560.706pm (7 atoms), H2O[1297] d=381.795pm (3 atoms), H2O[1465] d=439.794pm (3 atoms), H2O[1164] d=448.031pm (3 atoms), H2O[1091] d=474.074pm (3 atoms), H2O[178] d=505.378pm (3 atoms), H2O[392] d=511.911pm (3 atoms), H2O[691] d=516.666pm (3 atoms), H2O[737] d=524.548pm (3 atoms), H2O[1026] d=564.796pm (3 atoms)
  C   0.57546  -0.39416   0.79418
  C  -0.67014  -0.36391   1.69212
  C  -0.23934  -0.41700  -1.55849
  C   1.84176   0.62417  -1.13186
  C  -0.18424   1.64051  -0.41054
  H   0.90636  -1.43019   0.72198
  H   1.38446   0.05680   1.36889
  H  -1.23774  -2.07228   0.93772
  H  -0.42474  -0.78974   2.66502
  H  -1.02984   0.64543   1.89199
  H  -1.31094  -0.46531  -1.36485
  H   0.11796  -1.43818  -1.69129
  H  -0.23214  -0.00922  -2.56931
  H   1.79866   1.15411  -2.08338
  H   2.41696   1.20168  -0.40813
  H   2.35906  -0.33059  -1.22632
  H   0.41456   2.22963   0.28403
  H  -0.28754   2.19504  -1.34324
  H  -1.20484   1.63566  -0.02764
  N   0.51486   0.30913  -0.52864
  O  -1.67554  -1.25131   1.10335
  C  -3.47014  -2.73524   5.53944
  C  -2.24814  -3.20088   4.74399
  C  -3.14104  -0.30592   5.91658
  C  -4.39744  -1.14448   3.93887
  C  -5.42384  -1.31640   5.99378
  H  -3.10064  -2.83390   6.56015
  H  -4.27424  -3.46537   5.44743
  H  -0.48694  -2.56100   4.32347
  H  -1.99844  -4.20648   5.08239
  H  -2.34724  -3.33209   3.66646
  H  -3.58054   0.68057   5.76886
  H  -2.24764  -0.35542   5.29408
  H  -2.93994  -0.28393   6.98766
  H  -3.58394  -1.22662   3.21804
  H  -4.85534  -0.17618   3.73690
  H  -5.00884  -1.97860   3.59459
  H  -6.01974  -2.12036   5.56186
  H  -5.53524  -1.40491   7.07446
  H  -6.00584  -0.40385   5.86506
  N  -4.04844  -1.37906   5.39934
  O  -1.15324  -2.39479   4.97261
  H  -4.79214   1.64722   2.02985
  H  -3.20964  -0.06759   0.13296
  O  -5.19934   1.20961   1.30439
  O  -3.70324   0.25421  -0.59941
  O  -5.81214   1.67060  -1.05964
  O  -3.70534   2.78230   0.02836
  P  -4.55404   1.46590  -0.07784
  H   0.57557   2.90347   2.96820
  H   3.20989   4.30923   1.69828
  O   1.46794   2.67871   2.77651
  O   3.47380   4.29782   2.60040
  O   1.64806   4.68186   4.22525
  O   3.34907   2.78642   4.59371
  P   2.50494   3.55658   3.53271
  H  -0.38434  -3.82817  -0.64310
  H   0.34766  -3.92455   0.55729
  O  -0.55904  -3.76388   0.29583
  H  -1.97778   3.50360   2.47691
  H  -2.53865   3.46559   1.18956
  O  -1.70390   3.71688   1.58487
  H  -0.38504  -3.31511  -2.81279
  H   0.27226  -4.40941  -2.91361
  O   0.01276  -3.88591  -2.15539
  H   1.70156  -3.65001   3.65399
  H   1.05856  -3.46771   2.46164
  O   0.91276  -3.19041   3.36613
  H  -0.90594   0.66709  -5.18514
  H  -0.87904   2.00869  -4.97584
  O  -1.40764   1.28079  -4.64864
  H  -1.85254  -2.40251  -4.65406
  H  -0.45414  -2.06411  -4.82327
  O  -1.00514  -2.60521  -4.25772
  H  -1.85039   2.37629   4.13628
  H  -3.24699   2.73805   4.31411
  O  -2.64751   2.47528   3.61568
  H   4.68953   2.82127  -0.51045
  H   3.68270   2.98964  -1.47291
  O   3.94778   3.40893  -0.65428
  H  -0.61974   4.92995   1.22602
  H   0.13826   5.94636   1.95368
  O   0.10256   5.54239   1.08664
