  83
# Step 2519, RM=C5H14NO[120] (21 atoms), C5H14NO[262] d=551.755pm (21 atoms), H2O4P[310] d=521.100pm (7 atoms), H2O4P[46] d=567.932pm (7 atoms), H2O[322] d=412.024pm (3 atoms), H2O[969] d=415.069pm (3 atoms), H2O[1548] d=423.831pm (3 atoms), H2O[487] d=453.058pm (3 atoms), H2O[1138] d=453.370pm (3 atoms), H2O[1197] d=458.214pm (3 atoms), H2O[1352] d=474.677pm (3 atoms), H2O[1192] d=491.460pm (3 atoms), H2O[292] d=496.615pm (3 atoms)
  C   0.16743  -0.47217  -0.88670
  C  -1.04077  -1.46557  -0.59440
  C   0.61653   0.46833   1.40200
  C  -0.67087   1.76853  -0.15660
  C   1.60923   1.32423  -0.48370
  H   0.00743  -0.07877  -1.89060
  H   1.04963  -1.07617  -1.09860
  H  -1.69777  -2.13067   1.19190
  H  -1.98357  -0.92047  -0.54820
  H  -0.94007  -2.20767  -1.38640
  H  -0.28847  -0.04047   1.73400
  H   0.76803   1.35363   2.01950
  H   1.44793  -0.23437   1.45740
  H  -0.75257   2.21353  -1.14820
  H  -1.63247   1.28213   0.00710
  H  -0.51637   2.58863   0.54450
  H   1.96793   2.19653   0.06290
  H   1.53753   1.73323  -1.49150
  H   2.44643   0.62623  -0.48650
  N   0.39013   0.72863  -0.02560
  O  -0.94227  -2.19077   0.62750
  C   0.73433  -3.80347   3.19840
  C   2.01253  -3.11907   2.65410
  C   0.66633  -5.28627   1.30080
  C  -1.05187  -5.33557   2.99970
  C   1.24453  -6.19557   3.44620
  H   0.03553  -3.04807   2.83900
  H   0.64293  -3.81427   4.28450
  H   3.79753  -3.22477   2.69890
  H   1.98373  -2.03907   2.79910
  H   2.04243  -3.32407   1.58400
  H   0.18853  -4.49187   0.72750
  H   0.14483  -6.17107   0.93550
  H   1.69763  -5.44987   0.98820
  H  -1.48787  -6.23267   2.56010
  H  -1.56687  -4.56327   2.42840
  H  -1.38897  -5.31857   4.03610
  H   1.32223  -6.12927   4.53140
  H   2.27633  -6.03327   3.13460
  H   0.77183  -7.10217   3.06830
  N   0.41823  -5.18687   2.73830
  O   3.13423  -3.67557   3.19880
  H  -2.79247   2.04353  -5.82320
  H   0.93193   1.84623  -5.30270
  O  -2.29657   1.24563  -5.79090
  O   0.14833   1.79863  -5.81980
  O  -0.67187  -0.04377  -4.28090
  O  -1.22887   2.40133  -3.79460
  P  -0.97727   1.36253  -4.90090
  H   6.37033   0.26213   3.75260
  H   3.76053   0.62113   2.89330
  O   6.04143  -0.56657   3.45490
  O   3.90533   0.14593   2.09530
  O   6.16623  -0.02667   0.86220
  O   4.90693  -2.01137   1.71380
  P   5.27693  -0.54937   2.06460
  H   3.63193  -1.94977  -1.14920
  H   3.83813  -2.11207   0.32520
  O   3.28883  -2.42597  -0.39310
  H  -3.12807  -0.79327   2.30970
  H  -3.40357   0.18623   3.27010
  O  -3.42557   0.11653   2.31570
  H  -2.10527  -0.50667  -3.46770
  H  -2.72107  -1.79157  -3.35820
  O  -2.83837  -0.91037  -3.00320
  H   0.94043   4.70983   1.56730
  H   0.57143   3.65583   2.42490
  O   1.32093   3.88773   1.87660
  H  -3.43667  -3.14397   2.42770
  H  -2.45257  -2.38777   3.26460
  O  -2.95327  -2.31817   2.45180
  H  -4.31687   0.67013  -1.24450
  H  -3.54797   0.39893  -2.39180
  O  -3.99247   1.15303  -2.00460
  H  -3.17677   2.60863  -2.02550
  H  -2.01447   3.10823  -2.60750
  O  -2.67697   3.42433  -1.99310
  H  -4.34067   0.14343   0.91520
  H  -5.76017   0.10673   0.52560
  O  -4.88997   0.16773   0.13170
  H   2.48213  -3.48247  -1.50910
  H   2.76193  -4.19777  -2.62940
  O   1.97453  -4.02377  -2.11370
