  74
# Step 8, RM=C5H14NO[498] (21 atoms), C5H14NO[82] d=598.458pm (21 atoms), C2H3O2[328] d=443.925pm (7 atoms), C2H3O2[340] d=491.250pm (7 atoms), H2O[927] d=414.487pm (3 atoms), H2O[539] d=440.638pm (3 atoms), H2O[979] d=466.152pm (3 atoms), H2O[842] d=487.954pm (3 atoms), H2O[166] d=496.184pm (3 atoms), H2O[720] d=515.475pm (3 atoms)
  C  -0.57517   0.70979   0.43256
  C   0.60633   1.70299   0.46376
  C  -0.36387  -0.34351  -1.77454
  C   0.65423  -1.35671   0.05236
  C  -1.77677  -1.35021  -0.00464
  H  -1.47767   1.21209   0.08436
  H  -0.74297   0.36249   1.45196
  H   2.05143   1.70819   1.72066
  H   0.75343   2.21909  -0.48494
  H   0.23373   2.48889   1.12076
  H   0.53683  -2.34491  -0.39244
  H  -0.60947  -1.22801  -2.36214
  H  -1.11557   0.36069  -2.13114
  H   0.61133  -0.01521  -2.13414
  H  -2.70057  -0.77151  -0.00444
  H  -1.92657  -2.26381  -0.58004
  H  -1.61347  -1.64721   1.03126
  H   1.62273  -0.93661  -0.21914
  H   0.76753  -1.50191   1.12666
  N  -0.54037  -0.57821  -0.32134
  O   1.79293   1.13339   1.01646
  C   4.82853   1.66469  -0.48634
  C   5.85893   0.60089  -0.71314
  C   3.72113   3.70619  -0.83354
  C   5.26013   2.91919  -2.48184
  C   6.04473   3.76749  -0.33174
  H   4.58323   1.66299   0.57576
  H   3.95873   1.17939  -0.92914
  H   7.75153   0.20979  -0.54494
  H   5.53313  -0.22731  -0.08364
  H   5.86423   0.22689  -1.73694
  H   4.45963   2.34649  -2.95034
  H   3.19653   3.79589   0.11766
  H   3.02063   3.21509  -1.50894
  H   3.74323   4.74219  -1.17164
  H   5.49423   3.89509  -2.90724
  H   6.13463   2.31559  -2.72474
  H   6.19903   4.82619  -0.54014
  H   5.79973   3.73999   0.72996
  H   7.06723   3.39529  -0.39504
  N   4.98023   3.00889  -1.03294
  O   7.16213   0.87799  -0.23024
  C  -1.54997  -0.12481   4.22036
  C  -0.11737   0.07879   4.04666
  H   0.03883   0.98269   3.45786
  H   0.31013   0.09879   5.04916
  H   0.24573  -0.75701   3.44856
  O  -2.20247  -0.81261   3.42766
  O  -2.14407   0.63449   5.02186
  C   3.42733  -2.75971  -2.24044
  C   3.91203  -1.51611  -2.96074
  H   3.85983  -0.64781  -2.30394
  H   3.23203  -1.18971  -3.74764
  H   4.97433  -1.65831  -3.15924
  O   3.66373  -2.72151  -1.04454
  O   2.80913  -3.62462  -2.87984
  H  -1.09597   4.40939  -0.16254
  H  -1.87247   4.12949  -1.34194
  O  -1.05677   3.84159  -0.93214
  H  -0.33157   3.28059  -2.41214
  H  -1.17147   2.95069  -3.36784
  O  -0.21687   2.93929  -3.29904
  H   1.62033  -4.15962   0.66896
  H   2.35753  -3.76730  -0.51894
  O   1.66833  -4.37964  -0.26134
  H   1.36503  -4.73247   2.90866
  H   2.05533  -3.66259   2.95816
  O   1.40943  -3.97534   2.32476
  H   3.22073   3.65369   2.95956
  H   2.05483   3.35669   3.72326
  O   2.40623   3.16199   2.85446
  H   1.29973  -4.22159  -2.80284
  H   0.75003  -4.54368  -1.62704
  O   0.42603  -4.49849  -2.52654
