  74
# Step 4, RM=C5H14NO[163] (21 atoms), C5H14NO[263] d=493.390pm (21 atoms), C2H3O2[291] d=503.812pm (7 atoms), C2H3O2[200] d=515.520pm (7 atoms), H2O[768] d=397.868pm (3 atoms), H2O[371] d=408.497pm (3 atoms), H2O[955] d=487.381pm (3 atoms), H2O[893] d=503.869pm (3 atoms), H2O[298] d=529.040pm (3 atoms), H2O[774] d=536.273pm (3 atoms)
  C  -0.53674  -0.81429  -0.19775
  C  -0.59984  -0.94879   1.34655
  C   0.27166   1.48501  -0.14185
  C   1.76416  -0.29859  -0.38065
  C   0.19766   0.28181  -2.17325
  H  -0.27484  -1.79889  -0.58515
  H  -1.58874  -0.65869  -0.43715
  H  -1.82924  -0.28559   2.75105
  H  -1.11764  -1.89369   1.51145
  H   0.39196  -0.87859   1.79315
  H  -0.74934   1.85731  -0.22575
  H   2.09896  -0.21059   0.65285
  H   0.90106   2.19711  -0.67555
  H   0.47256   1.58301   0.92495
  H  -0.81764   0.59801  -2.41275
  H   0.83886   1.01381  -2.66425
  H   0.36876  -0.67339  -2.66975
  H   1.95046  -1.30399  -0.75825
  H   2.40746   0.36091  -0.96305
  N   0.39576   0.15961  -0.70935
  O  -1.36224   0.08751   2.01905
  C  -3.78454  -2.80479   0.31445
  C  -4.25444  -1.43339   0.82825
  C  -5.57254  -3.78589  -0.98915
  C  -3.31684  -4.46459  -1.12525
  C  -4.02044  -2.28599  -1.92645
  H  -2.69784  -2.72759   0.34655
  H  -4.09434  -3.56379   1.03285
  H  -4.69244   0.21651  -0.00605
  H  -3.70714  -1.27919   1.75815
  H  -5.30414  -1.48349   1.11755
  H  -3.42524  -5.33229  -0.47445
  H  -3.08324  -1.72989  -1.94725
  H  -5.90454  -4.17409  -1.95205
  H  -4.82394  -1.55029  -1.96045
  H  -3.29364  -4.72479  -2.18345
  H  -2.28884  -4.14509  -0.95475
  H  -6.23264  -2.92689  -0.86815
  H  -3.94314  -2.70359  -2.93035
  H  -5.82014  -4.49839  -0.20235
  N  -4.19414  -3.33189  -0.94015
  O  -3.93874  -0.35319   0.01595
  C  -0.78334   4.12131  -2.63025
  C  -1.94024   4.65351  -3.46035
  H  -1.70964   5.69791  -3.67055
  H  -2.21944   4.11111  -4.36365
  H  -2.85914   4.63041  -2.87465
  O  -0.39374   4.78221  -1.59315
  O  -0.08714   3.15351  -3.08725
  C   4.27456   1.34181   2.50565
  C   4.82386  -0.06219   2.43615
  H   4.43686  -0.47189   3.36915
  H   4.38706  -0.49979   1.53845
  H   5.91096   0.01691   2.43905
  O   4.74416   2.08411   3.37855
  O   3.48706   1.73191   1.61535
  H   2.02466  -3.32289   2.73080
  H   1.79016  -3.12929   1.31470
  O   2.08966  -2.62949   2.07414
  H   0.63896  -4.07959  -0.66495
  H   0.26226  -4.41799   0.60215
  O   0.99326  -3.93799   0.21285
  H   2.73686   2.45871  -3.29855
  H   1.43466   3.07291  -3.06495
  O   2.35656   3.21381  -2.84965
  H   1.15236   4.60491  -1.01245
  H   2.31096   3.99911  -1.55055
  O   2.08496   4.55251  -0.80305
  H   4.46586   0.61891  -4.13495
  H   3.58096   0.18601  -3.05845
  O   3.65596   0.89001  -3.70265
  H  -0.68054  -5.37979   2.44324
  H  -1.63854  -4.34959   2.19332
  O  -1.09244  -4.95439   1.69117
