  83
# Step 7573, RM=C5H14NO[84] (21 atoms), C5H14NO[167] d=561.980pm (21 atoms), H2O4P[57] d=484.021pm (7 atoms), H2O4P[284] d=522.875pm (7 atoms), H2O[1631] d=442.929pm (3 atoms), H2O[452] d=452.003pm (3 atoms), H2O[750] d=465.341pm (3 atoms), H2O[20] d=478.646pm (3 atoms), H2O[1658] d=485.610pm (3 atoms), H2O[839] d=494.612pm (3 atoms), H2O[272] d=501.900pm (3 atoms), H2O[713] d=515.482pm (3 atoms), H2O[761] d=562.940pm (3 atoms)
  C  -0.64487  -0.80807  -0.01050
  C  -0.32107  -1.14777   1.44390
  C  -0.70497   0.45333  -2.02030
  C   1.23133   0.59663  -0.86600
  C  -0.60287   1.64243   0.16760
  H  -0.12857  -1.61187  -0.53540
  H  -1.73007  -0.83647  -0.10780
  H   1.32213  -1.05237   2.63260
  H  -0.80727  -2.08237   1.72350
  H  -0.84427  -0.41237   2.05500
  H  -0.37797  -0.45807  -2.52080
  H  -0.50557   1.36133  -2.58930
  H  -1.78727   0.37703  -1.91570
  H   1.71453  -0.22037  -1.40200
  H   1.42013   1.45563  -1.50990
  H   1.81313   0.82983   0.02570
  H  -0.39517   2.59743  -0.31500
  H  -1.68577   1.63763   0.29180
  H  -0.20337   1.56703   1.17890
  N  -0.20347   0.44353  -0.64580
  O   1.09903  -1.13977   1.71850
  C   2.73953  -5.04125  -0.40310
  C   1.79703  -3.82599  -0.01970
  C   4.21023  -6.22999  -1.60400
  C   2.62473  -4.83695  -2.82530
  C   4.58453  -3.88020  -1.55420
  H   2.13463  -5.94123  -0.29280
  H   3.45133  -5.10150   0.42030
  H   0.23393  -4.60723   0.13930
  H   2.20103  -2.82957  -0.19890
  H   1.83503  -3.82274   1.06960
  H   4.91253  -6.31240  -0.77450
  H   3.53303  -7.08159  -1.53820
  H   4.82023  -6.35025  -2.49930
  H   2.00413  -5.71000  -3.02720
  H   1.91713  -4.00862  -2.78930
  H   3.30503  -4.61179  -3.64660
  H   4.15973  -2.87717  -1.51450
  H   5.37703  -3.92411  -2.30120
  H   5.21353  -4.01315  -0.67400
  N   3.52973  -4.95345  -1.64110
  O   0.57393  -4.11485  -0.59210
  H  -6.15807   1.23973   2.40020
  H  -3.18777   0.89583   3.84980
  O  -5.62527   0.87303   1.71810
  O  -4.11567   0.81293   3.72440
  O  -3.59987   2.50783   1.77320
  O  -3.32597   0.00373   1.50900
  P  -4.16157   1.08693   2.19630
  H   1.12073   5.88103   0.99620
  H   3.15783   4.38883   3.29440
  O   1.53333   5.17913   0.52640
  O   2.82043   5.03533   2.70130
  O   1.91263   3.00283   1.63990
  O   3.87313   4.15423   0.50140
  P   2.53583   4.38413   1.32920
  H  -0.27847   0.56403   4.53400
  H   1.07893   0.59533   4.14250
  O   0.36093   1.21863   4.25300
  H  -3.33037  -2.49967   2.94110
  H  -3.12187  -1.71397   1.82290
  O  -3.05417  -2.64467   2.03620
  H   0.34283   3.22883   2.68580
  H  -0.30397   2.69303   3.59890
  O  -0.47467   3.49563   3.10620
  H  -3.88087  -2.48977  -1.31740
  H  -4.87527  -1.90237  -2.20140
  O  -3.99427  -1.71997  -1.87480
  H  -0.76077  -1.47847   4.85960
  H  -2.10097  -1.32487   4.76190
  O  -1.34117  -0.77957   4.55810
  H   2.83493  -0.61627   5.03920
  H   2.17423  -1.54007   4.35360
  O   2.19713  -0.58357   4.32620
  H  -1.36587   4.19733   1.96220
  H  -2.63797   3.77043   1.52210
  O  -2.00497   4.45223   1.29680
  H  -3.30307  -4.59017  -0.09600
  H  -3.30597  -3.44187   0.58190
  O  -3.57837  -3.69633  -0.29970
  H  -1.96437   4.70133  -0.71090
  H  -1.66197   5.78993  -1.36530
  O  -2.09017   4.97263  -1.62020
