  83
# Step 1014, RM=C5H14NO[130] (21 atoms), C5H14NO[315] d=631.367pm (21 atoms), H2O4P[327] d=485.351pm (7 atoms), H2O4P[157] d=490.798pm (7 atoms), H2O[1282] d=421.626pm (3 atoms), H2O[637] d=474.950pm (3 atoms), H2O[819] d=494.655pm (3 atoms), H2O[565] d=515.275pm (3 atoms), H2O[35] d=528.837pm (3 atoms), H2O[1606] d=557.743pm (3 atoms), H2O[760] d=559.228pm (3 atoms), H2O[748] d=567.895pm (3 atoms), H2O[203] d=591.804pm (3 atoms)
  C  -0.04040  -1.00178  -0.08422
  C   0.90910  -1.20352   1.04978
  C  -1.23170   0.90362   0.81548
  C  -1.70150   0.22452  -1.32802
  C   0.38090   1.20714  -0.89642
  H  -0.86250  -1.69304   0.10098
  H   0.39250  -1.43923  -0.98382
  H   2.42320  -0.31014   1.56308
  H   1.23590  -2.23925   1.14238
  H   0.44020  -0.88510   1.98078
  H  -1.63380   1.90233   0.64518
  H  -1.97970   0.24748   1.26058
  H  -0.47910   1.14200   1.56708
  H  -1.53430   0.04592  -2.39022
  H  -2.48850  -0.39144  -0.89302
  H  -2.29690   1.13712  -1.29992
  H   0.84150   0.81157  -1.80162
  H  -0.00530   2.19060  -1.16432
  H   1.10290   1.49111  -0.13092
  N  -0.63240   0.31894  -0.37692
  O   2.12270  -0.50340   0.68828
  C   3.70500   4.62316   1.18473
  C   3.48180   3.65196  -0.02334
  C   3.42670   6.64847  -0.05899
  C   1.66710   5.82910   1.19901
  C   3.67900   6.68902   2.16819
  H   3.42790   4.05117   2.07023
  H   4.77470   4.81563   1.26720
  H   3.98480   3.41278  -1.89259
  H   3.87390   2.71132   0.36339
  H   2.40380   3.54487  -0.14402
  H   4.48880   6.62313  -0.30249
  H   3.14900   7.70227  -0.03691
  H   3.04320   6.09002  -0.91292
  H   1.18600   6.79528   1.04699
  H   1.34750   5.40894   2.15264
  H   1.28520   5.18089   0.41031
  H   3.45010   6.32447   3.16959
  H   4.76750   6.73044   2.12892
  H   3.40190   7.74164   2.22548
  N   3.12180   5.92951   1.11655
  O   4.23680   4.01254  -1.20714
  H   0.61890   3.50146   3.63662
  H   0.50260   1.48538   5.38597
  O   1.09530   2.87467   3.12301
  O   1.18110   1.04690   4.90526
  O   2.89600   1.14266   2.91374
  O   3.06330   2.87113   4.74077
  P   2.03630   1.98169   3.93291
  H  -3.13280  -3.60159   0.20256
  H  -2.54560  -1.94989   3.15986
  O  -3.50660  -3.78149   1.04609
  O  -2.02530  -2.25549   2.43909
  O  -1.21440  -4.53219   1.62534
  O  -2.87400  -4.40019   3.41803
  P  -2.39920  -3.69699   2.14373
  H  -0.33260  -4.37109   0.19478
  H  -0.65350  -3.83379  -1.12722
  O   0.09470  -4.17879  -0.63992
  H  -0.24520   5.40424  -1.60442
  H   0.05150   4.11679  -2.00292
  O  -0.37970   4.52452  -1.25192
  H  -4.50750   1.58596   3.29824
  H  -3.53900   2.18843   2.63678
  O  -3.96450   1.33531   2.55090
  H  -1.09800  -0.00999  -5.00012
  H  -1.68510  -1.18647  -4.38522
  O  -0.98550  -0.96055  -4.99822
  H  -1.91010   4.23630   3.26818
  H  -2.26220   4.13334   1.84549
  O  -2.52760   3.78166   2.69526
  H   2.30420   2.86030  -3.55642
  H   3.49640   3.64911  -3.93472
  O   3.25950   2.82677  -3.50592
  H  -1.16490   4.87701   0.16154
  H  -1.22190   6.13339   0.60814
  O  -1.53560   5.29224   0.94027
  H   4.08740  -4.79569   1.46388
  H   3.38310  -4.45019   0.34688
  O   3.86800  -3.97549   1.02198
  H  -5.78780  -0.57831  -3.27172
  H  -4.41410  -0.68165  -3.12622
  O  -5.07160   0.00654  -3.02422
