  83
# Step 5337, RM=C5H14NO[14] (21 atoms), C5H14NO[106] d=564.480pm (21 atoms), H2O4P[197] d=557.750pm (7 atoms), H2O4P[318] d=558.910pm (7 atoms), H2O[1376] d=405.105pm (3 atoms), H2O[1633] d=465.733pm (3 atoms), H2O[1071] d=467.272pm (3 atoms), H2O[917] d=506.870pm (3 atoms), H2O[249] d=516.606pm (3 atoms), H2O[782] d=520.498pm (3 atoms), H2O[316] d=524.944pm (3 atoms), H2O[1394] d=535.895pm (3 atoms), H2O[1368] d=548.960pm (3 atoms)
  C   0.01574  -0.85851   0.54275
  C  -1.47316  -1.05070   0.27195
  C   0.00374   1.53331   0.93125
  C   0.68414   0.75845  -1.25055
  C   2.03424   0.37836   0.58635
  H   0.13354  -1.14336   1.58825
  H   0.45124  -1.70751   0.01585
  H  -2.60986  -1.34327  -1.33445
  H  -2.07586  -0.28047   0.75325
  H  -1.73886  -2.03359   0.66105
  H   0.07994   1.42172   2.01275
  H  -1.00516   1.82559   0.64005
  H   0.56104   2.43561   0.67955
  H   1.19944   0.08616  -1.93665
  H  -0.35106   0.78290  -1.59075
  H   1.09644   1.74711  -1.45235
  H   2.59004  -0.39854   0.06135
  H   2.58404   1.31131   0.46205
  H   2.19504   0.12897   1.63515
  N   0.65074   0.40709   0.22145
  O  -1.71506  -1.10609  -1.14425
  C   2.47765   1.31122   4.47025
  C   2.34604  -0.26364   4.44595
  C   2.37148   1.71539   6.85105
  C   2.00630   3.44213   5.36515
  C   0.33275   1.79803   5.61655
  H   2.21170   1.66747   3.47505
  H   3.56111   1.43041   4.46595
  H   0.88347  -1.46025   4.48195
  H   2.60491  -0.55088   5.46505
  H   2.99562  -0.74710   3.71635
  H   1.92584   2.39350   7.57885
  H   3.42861   1.97818   6.88995
  H   2.12216   0.70044   7.16055
  H   1.69181   3.79657   4.38355
  H   3.08908   3.55985   5.32245
  H   1.64303   4.14417   6.11565
  H   0.15235   0.79037   5.99095
  H  -0.14686   1.99831   4.65845
  H  -0.18434   2.41674   6.34995
  N   1.80431   2.02349   5.53295
  O   1.00593  -0.58082   4.15855
  H  -1.70116  -0.38468   4.17545
  H  -3.95486   1.51971   5.51055
  O  -2.44436  -0.83345   3.81505
  O  -3.38626   1.29982   4.79505
  O  -4.56246   0.28116   2.78455
  O  -4.68516  -0.87059   5.05805
  P  -3.75396  -0.05560   4.12815
  H  -3.80486   1.72702   1.77515
  H  -2.98406   5.11728   2.21495
  O  -3.39116   2.35685   1.21325
  O  -3.74656   4.56985   2.26505
  O  -5.67576   3.49976   0.97055
  O  -3.46776   4.31943  -0.28725
  P  -4.08776   3.71708   1.03125
  H  -2.18506   3.07107  -3.09715
  H  -1.54926   3.35794  -1.80945
  O  -1.50596   2.71958  -2.52145
  H   2.56724  -4.10299   0.42845
  H   3.31141  -3.28371   1.24155
  O   3.17649  -3.37626   0.29845
  H   2.86660   2.07564  -3.23555
  H   3.81476   1.83553  -2.24125
  O   3.13218   2.48455  -2.41185
  H  -1.92364   4.86948  -0.35095
  H  -0.62428   4.82583   0.13915
  O  -1.04085   4.92062  -0.71735
  H  -5.78696  -0.25409   0.10995
  H  -4.91556  -0.43547   1.29645
  O  -5.05966  -0.79342   0.42055
  H  -5.25996  -2.51076  -1.68895
  H  -4.67006  -1.79967  -0.67195
  O  -4.36986  -2.39938  -1.35485
  H   4.72436  -0.24339  -2.89625
  H   4.88441  -0.71933  -1.58405
  O   4.83732   0.13036  -2.02225
  H   5.42787   1.11300   1.06515
  H   5.16405   0.84993   2.56435
  O   4.83548   1.30862   1.79105
  H  -0.41846   5.15037   2.79375
  H   0.62974   5.20189   1.84675
  O  -0.32546   5.14082   1.84115
