  83
# Step 2920, RM=C5H14NO[119] (21 atoms), C5H14NO[190] d=545.195pm (21 atoms), H2O4P[215] d=503.530pm (7 atoms), H2O4P[170] d=513.284pm (7 atoms), H2O[918] d=448.156pm (3 atoms), H2O[693] d=455.195pm (3 atoms), H2O[1489] d=463.662pm (3 atoms), H2O[1221] d=484.959pm (3 atoms), H2O[524] d=486.472pm (3 atoms), H2O[49] d=529.226pm (3 atoms), H2O[450] d=566.787pm (3 atoms), H2O[1258] d=610.070pm (3 atoms), H2O[1423] d=619.185pm (3 atoms)
  C  -0.72792   0.12260   0.66691
  C  -0.31482   1.60960   0.66691
  C  -0.25452  -2.16390   0.35101
  C   0.00308  -0.61650  -1.46589
  C   1.56468  -0.66460   0.43951
  H  -0.90892  -0.02000   1.73221
  H  -1.74152   0.06490   0.27021
  H  -1.24532   2.65390  -0.80779
  H  -0.92932   2.06360   1.44431
  H   0.66418   1.76920   1.11881
  H  -0.03772  -2.36010   1.40111
  H   0.21808  -2.97120  -0.20859
  H  -1.31762  -2.40240   0.32011
  H   0.47968  -1.46130  -1.96319
  H   0.59248   0.21810  -1.84549
  H  -1.00742  -0.68420  -1.86909
  H   2.20868  -1.44940   0.04271
  H   2.04378   0.25550   0.10471
  H   1.73458  -0.82220   1.50461
  N   0.15508  -0.84360  -0.01599
  O  -0.38632   2.34850  -0.55869
  C   5.16828   0.13160  -0.71609
  C   6.18578  -1.07350  -0.78459
  C   3.99648   0.00420  -2.91489
  C   5.91158   1.31570  -2.80479
  C   4.04228   2.01990  -1.53149
  H   4.23158  -0.10520  -0.21139
  H   5.61838   0.87560  -0.05879
  H   5.01378  -2.28710  -1.61789
  H   6.22528  -1.56740   0.18631
  H   7.18498  -0.65690  -0.91229
  H   3.04948  -0.29770  -2.46739
  H   4.53268  -0.90130  -3.19899
  H   3.57558   0.54280  -3.76389
  H   6.62598   0.54150  -3.08479
  H   5.69518   1.87060  -3.71769
  H   6.51738   1.97070  -2.17869
  H   3.88678   2.75530  -2.32079
  H   3.01448   1.80710  -1.23779
  H   4.55438   2.53650  -0.71959
  N   4.77758   0.85380  -2.01169
  O   5.92518  -2.10650  -1.79059
  H  -4.91452  -1.62070   1.16521
  H  -3.94472  -2.64200   4.61591
  O  -5.13932  -1.29730   2.01871
  O  -4.18822  -1.75860   4.40631
  O  -2.73522  -2.21430   2.43611
  O  -3.21532   0.08620   3.08441
  P  -3.85922  -1.31130   2.94791
  H   2.05378   4.15690   4.13771
  H   4.60878   2.02870   2.28631
  O   2.22488   3.72240   3.32181
  O   3.67658   1.90860   2.27581
  O   1.72218   1.32400   3.83871
  O   3.78538   2.49170   4.77381
  P   2.85548   2.34160   3.53421
  H  -3.72972   2.59640   2.50891
  H  -3.30292   1.42050   2.01841
  O  -3.46982   2.28460   1.64201
  H  -3.50432   2.74070  -0.03489
  H  -4.13552   2.28120  -1.26169
  O  -3.41232   2.84250  -0.98219
  H   3.04698  -3.53090  -1.86199
  H   2.96328  -3.37920  -0.53879
  O   3.39598  -2.89230  -1.24019
  H   1.40258  -4.75770   0.64561
  H   2.84388  -4.90620   0.67441
  O   2.18828  -4.23540   0.48341
  H   0.03838   1.81920   4.05751
  H  -0.50822   2.74660   4.94781
  O  -0.82872   2.17650   4.24891
  H  -2.51122  -3.73330   1.69531
  H  -2.53032  -5.11200   1.89301
  O  -2.49152  -4.51620   1.14491
  H  -0.28952  -6.34340   1.59571
  H  -0.72252  -5.06800   0.97961
  O   0.04768  -5.47480   1.37651
  H   2.92948  -5.21120  -3.62879
  H   1.66948  -4.64690  -3.34739
  O   2.55428  -4.61150  -2.98399
  H  -3.52552  -4.50160  -0.06519
  H  -4.93792  -4.48470  -0.25729
  O  -4.14632  -4.53780  -0.79279
