  83
# Step 680, RM=C5H14NO[92] (21 atoms), C5H14NO[344] d=605.969pm (21 atoms), H2O4P[198] d=501.097pm (7 atoms), H2O4P[17] d=510.079pm (7 atoms), H2O[500] d=406.853pm (3 atoms), H2O[636] d=447.360pm (3 atoms), H2O[1046] d=459.661pm (3 atoms), H2O[803] d=484.795pm (3 atoms), H2O[1588] d=493.293pm (3 atoms), H2O[711] d=496.057pm (3 atoms), H2O[200] d=499.025pm (3 atoms), H2O[962] d=519.838pm (3 atoms), H2O[1622] d=535.128pm (3 atoms)
  C  -0.83366  -0.06165  -0.61900
  C   0.01533  -0.49955  -1.78550
  C   0.76456   1.36705   0.49930
  C   0.33600  -0.77815   1.34670
  C  -1.28869   0.94955   1.57570
  H  -1.43588   0.74385  -1.03920
  H  -1.48929  -0.91875  -0.46520
  H   1.40893  -1.57395  -2.30940
  H  -0.48414  -1.12495  -2.52540
  H   0.31429   0.31685  -2.44300
  H   0.45440   2.33085   0.09560
  H   1.47157   1.00285  -0.24600
  H   1.39194   1.48555   1.38280
  H   0.54078  -0.58135   2.39910
  H   1.25717  -1.09425   0.85730
  H  -0.29375  -1.65825   1.21650
  H  -0.91367   1.28575   2.54230
  H  -2.17556   0.32635   1.69070
  H  -1.57125   1.90815   1.14060
  N  -0.27826   0.35805   0.67540
  O   1.09519  -1.20135  -1.49960
  C  -0.64864  -6.28145  -1.78240
  C  -1.17851  -5.42305  -2.95520
  C   1.70539  -6.31515  -2.49860
  C   1.03337  -5.06245  -0.52370
  C   1.01238  -7.37555  -0.42160
  H  -0.86864  -7.33075  -1.97890
  H  -1.35947  -6.02125  -0.99810
  H  -1.84311  -3.71855  -2.42450
  H  -2.24479  -5.60685  -3.08710
  H  -0.77473  -5.78905  -3.89920
  H   2.73559  -6.47225  -2.17910
  H   1.47843  -7.08575  -3.23530
  H   1.65140  -5.39765  -3.08470
  H   2.05801  -4.91775  -0.18130
  H   0.41422  -5.17265   0.36660
  H   0.89283  -4.04205  -0.88010
  H   0.35763  -7.22545   0.43680
  H   0.90791  -8.34655  -0.90560
  H   2.02758  -7.26525  -0.04050
  N   0.76307  -6.24535  -1.35410
  O  -1.06333  -4.04715  -2.84520
  H  -3.39623  -0.03395  -3.81500
  H  -4.12751   0.04835  -1.09900
  O  -3.22164  -0.93575  -3.61550
  O  -4.62764  -0.64795  -1.48450
  O  -3.11394  -2.62275  -1.71010
  O  -5.24658  -2.38615  -3.17830
  P  -4.02241  -1.62685  -2.49730
  H  -3.97688   3.44035   1.16930
  H  -1.97039   4.64543   0.52790
  O  -3.95516   2.87877   0.41580
  O  -1.99330   4.36422  -0.36880
  O  -3.22283   2.85607  -1.95370
  O  -4.41711   4.87954  -1.09580
  P  -3.37416   3.75306  -0.71420
  H  -1.65820   2.76685  -2.58940
  H  -0.35821   3.52974  -2.94170
  O  -0.77202   2.66662  -2.93710
  H  -2.66544  -3.17495  -0.05880
  H  -3.40293  -3.27795   1.01750
  O  -2.53663  -3.61115   0.78350
  H   1.24184   3.36294   2.59810
  H   1.04067   3.31228   3.99680
  O   0.51362   3.22132   3.20300
  H  -0.20744  -2.74981   3.72600
  H  -1.32374  -2.04985   4.04320
  O  -0.43134  -2.09426   4.38660
  H  -0.99483  -4.93145   2.90340
  H  -1.23038  -3.92275   1.91950
  O  -0.57865  -4.12865   2.58970
  H  -0.35719   1.41545  -5.11570
  H   0.25522   1.97335  -4.04540
  O   0.52669   1.38465  -4.74960
  H   3.12424  -2.34865  -4.34140
  H   3.33814  -2.39505  -2.88590
  O   2.88679  -1.87025  -3.54700
  H  -1.09162   3.78226   2.93200
  H  -2.30441   3.40800   3.23290
  O  -1.95515   4.06690   2.63280
  H  -0.19979   0.73154   5.25690
  H   0.21645  -0.66797   5.21340
  O   0.59475   0.20317   5.33280
