  83
# Step 3595, RM=C5H14NO[247] (21 atoms), C5H14NO[133] d=595.937pm (21 atoms), H2O4P[96] d=500.934pm (7 atoms), H2O4P[191] d=518.199pm (7 atoms), H2O[937] d=376.475pm (3 atoms), H2O[820] d=410.946pm (3 atoms), H2O[540] d=442.481pm (3 atoms), H2O[591] d=465.464pm (3 atoms), H2O[144] d=474.181pm (3 atoms), H2O[1268] d=474.787pm (3 atoms), H2O[1244] d=483.258pm (3 atoms), H2O[1467] d=490.204pm (3 atoms), H2O[125] d=491.239pm (3 atoms)
  C   0.63699  -0.73944   0.19726
  C   0.53219  -0.43244   1.74226
  C   0.24939  -0.39894  -2.16204
  C   0.79409   1.49936  -0.83624
  C  -1.42091   0.46836  -0.69984
  H   1.68299  -0.89154  -0.06874
  H   0.23979  -1.71514  -0.08234
  H  -0.56661  -0.68364   3.27336
  H   1.10699  -1.23484   2.20466
  H   0.98389   0.54526   1.91016
  H  -0.29351   0.16586  -2.91984
  H  -0.11121  -1.42754  -2.16954
  H   1.32169  -0.40804  -2.35764
  H   1.83839   1.30906  -1.08394
  H   0.41559   2.16056  -1.61574
  H   0.61039   2.05486   0.08336
  H  -2.07021  -0.40404  -0.62564
  H  -1.52161   1.08826   0.19106
  H  -1.77471   1.00236  -1.58174
  N   0.05499   0.19526  -0.83434
  O  -0.75981  -0.56724   2.35566
  C  -1.35141   1.94856   5.32873
  C  -2.00371   0.77586   6.12109
  C  -1.39221   3.41426   3.41637
  C  -3.21951   1.98286   3.69429
  C  -2.91221   3.86316   5.14218
  H  -0.71531   1.47146   4.58315
  H  -0.61161   2.54346   5.86420
  H  -2.95881   1.51096   7.53036
  H  -1.34631   0.10726   6.67686
  H  -2.33981   0.15306   5.29206
  H  -0.61321   4.11226   3.72306
  H  -0.72701   2.74756   2.86769
  H  -1.88641   3.84346   2.54476
  H  -2.71961   1.20366   3.11885
  H  -3.90841   1.38336   4.28935
  H  -3.81291   2.57616   2.99866
  H  -3.49561   4.49266   4.47016
  H  -2.22401   4.44856   5.75197
  H  -3.58701   3.39516   5.85887
  N  -2.25561   2.77236   4.44153
  O  -3.16471   1.04476   6.73458
  H  -2.23231  -5.42994  -3.41914
  H  -2.70331  -3.21434  -1.26614
  O  -2.41761  -5.31934  -2.50424
  O  -1.88181  -3.38354  -0.84174
  O  -0.18951  -3.98444  -2.60194
  O  -0.58641  -5.50034  -0.60374
  P  -1.27301  -4.55544  -1.66484
  H  -6.15971  -0.28254   3.11736
  H  -2.95961  -1.24054   1.99076
  O  -6.16691  -0.44324   2.19126
  O  -3.78821  -1.16114   2.42746
  O  -5.15591  -1.98774   0.52036
  O  -4.54821   0.48476   0.62466
  P  -4.91431  -0.79234   1.45966
  H   3.53689  -0.57314   2.05356
  H   3.42899   0.82226   1.68086
  O   3.52659  -0.03344   1.26306
  H  -1.95461   3.67336   0.45946
  H  -1.23441   4.00526  -0.75024
  O  -1.08061   3.95906   0.19336
  H  -4.05321   3.38256   0.22636
  H  -3.58351   1.95586   0.47466
  O  -3.29471   2.86806   0.50246
  H   5.04449  -1.69104  -0.65224
  H   4.04409  -0.76634  -0.17394
  O   4.41419  -1.06314  -1.00534
  H   3.84309   2.08246   3.15110
  H   2.74139   2.78656   3.10791
  O   3.25789   2.33826   2.43818
  H   3.63069   3.36036  -0.44844
  H   3.25669   3.14316   0.87066
  O   2.97139   3.70766   0.15226
  H  -0.97181   3.83606  -3.14314
  H  -2.23821   3.74976  -2.49974
  O  -1.34671   4.02236  -2.28234
  H   4.06759   1.64096  -2.45234
  H   4.36029   1.11116  -1.14304
  O   4.23369   1.96066  -1.56544
  H   3.65229  -1.77604  -2.23974
  H   3.54719  -1.18504  -3.53994
  O   3.27599  -1.98754  -3.09414
