  83
# Step 5705, RM=C5H14NO[184] (21 atoms), C5H14NO[233] d=599.958pm (21 atoms), H2O4P[209] d=546.914pm (7 atoms), H2O4P[244] d=553.783pm (7 atoms), H2O[1526] d=415.238pm (3 atoms), H2O[686] d=438.378pm (3 atoms), H2O[1491] d=450.158pm (3 atoms), H2O[240] d=466.423pm (3 atoms), H2O[1620] d=467.819pm (3 atoms), H2O[1265] d=482.280pm (3 atoms), H2O[1201] d=503.049pm (3 atoms), H2O[17] d=503.057pm (3 atoms), H2O[550] d=515.523pm (3 atoms)
  C  -0.78664   0.27562  -0.66685
  C  -1.81684  -0.40290   0.26925
  C   1.16566  -1.19207  -0.19405
  C   1.33716   0.62055  -1.66965
  C   1.08346   0.97678   0.74405
  H  -1.02034   1.32033  -0.87205
  H  -0.94424  -0.23915  -1.61465
  H  -2.14174  -0.88379   2.19555
  H  -1.75694  -1.47672   0.09205
  H  -2.82924  -0.02676   0.12225
  H   0.99956  -1.74652  -1.11765
  H   0.65186  -1.76208   0.58005
  H   2.18296  -1.26062   0.19145
  H   1.11716   1.67667  -1.82555
  H   0.99156   0.11467  -2.57115
  H   2.42566   0.59717  -1.61565
  H   2.14366   0.96762   0.99705
  H   0.57516   0.63236   1.64475
  H   0.89736   2.04554   0.63815
  N   0.67296   0.19182  -0.39275
  O  -1.53434  -0.37401   1.68165
  C   1.50286   1.77152  -6.33265
  C   0.48426   2.33088  -5.25925
  C   1.80416  -0.54350  -5.72605
  C   3.44976   0.73136  -7.10355
  C   3.27966   1.11137  -4.72295
  H   0.92866   1.41688  -7.18855
  H   2.03346   2.67230  -6.64115
  H  -0.92594   1.69585  -4.09245
  H   0.97866   3.03728  -4.59245
  H  -0.24144   3.02836  -5.67755
  H   1.44626  -0.59209  -4.69765
  H   1.04116  -0.78816  -6.46505
  H   2.56666  -1.29166  -5.94275
  H   2.95636   0.46314  -8.03775
  H   4.19826  -0.05370  -6.99645
  H   3.99396   1.67247  -7.18235
  H   2.62076   1.43549  -3.91735
  H   4.07346   1.84304  -4.87345
  H   3.84236   0.29426  -4.27145
  N   2.52316   0.70937  -5.94805
  O  -0.12444   1.31147  -4.41335
  H  -3.46094   0.15325  -2.89735
  H  -5.52214   3.29704  -2.39045
  O  -3.71464   0.89188  -2.37425
  O  -4.58344   3.31705  -2.43715
  O  -4.62644   1.83794  -4.53485
  O  -2.40134   2.61814  -3.60305
  P  -3.87484   2.17474  -3.21495
  H   4.89206   1.32686  -0.44085
  H   5.06636   4.00444   0.57785
  O   4.59406   1.63916  -1.27595
  O   5.41246   3.82190  -0.27675
  O   4.45056   3.72068  -2.64135
  O   2.95986   3.59161  -0.70535
  P   4.36066   3.19266  -1.24535
  H   1.51346  -2.37948   3.10575
  H   1.64906  -3.43608   2.24125
  O   0.92206  -3.01078   2.69605
  H   3.18386  -0.85629   2.70465
  H   3.12106  -0.69779   4.03385
  O   2.53246  -1.06480   3.37425
  H   1.35106   2.87603   3.08335
  H   0.85636   3.87820   2.29495
  O   0.51286   3.33100   3.00125
  H  -0.66454  -3.69698   2.40665
  H  -1.89664  -3.08828   2.49405
  O  -1.55504  -3.90078   2.12085
  H   2.70516  -2.98986  -2.57575
  H   3.39686  -2.15083  -3.38705
  O   2.47106  -2.29611  -3.19225
  H  -0.24214  -3.58348  -3.89765
  H   0.90316  -2.63108  -3.76625
  O  -0.02214  -2.65868  -4.01005
  H   1.57176  -4.80376  -0.83985
  H   1.30036  -4.73267   0.54915
  O   0.83296  -4.96544  -0.25315
  H   3.53366   2.04837   2.73775
  H   3.26476   1.59731   4.03405
  O   2.90206   2.24491   3.42965
  H   3.58286  -3.47018   1.13395
  H   3.36006  -4.80828   1.49535
  O   2.83626  -4.01508   1.38285
