  83
# Step 2850, RM=C5H14NO[332] (21 atoms), C5H14NO[82] d=659.975pm (21 atoms), H2O4P[189] d=490.964pm (7 atoms), H2O4P[94] d=594.503pm (7 atoms), H2O[1539] d=409.878pm (3 atoms), H2O[1329] d=410.322pm (3 atoms), H2O[1288] d=417.277pm (3 atoms), H2O[221] d=418.441pm (3 atoms), H2O[316] d=428.844pm (3 atoms), H2O[1656] d=468.748pm (3 atoms), H2O[1441] d=487.321pm (3 atoms), H2O[931] d=493.513pm (3 atoms), H2O[1060] d=499.155pm (3 atoms)
  C  -0.03803  -1.03890  -0.06824
  C   1.30254  -1.10026   0.65476
  C  -1.67517   0.00513  -1.33664
  C  -1.09698   1.02654   0.66726
  C   0.42114   1.00243  -1.30054
  H   0.04465  -1.73475  -0.90314
  H  -0.79066  -1.51982   0.55656
  H   1.12734  -0.65529   2.36066
  H   2.09934  -0.84208  -0.04274
  H   1.54294  -2.09196   1.03796
  H  -2.02076   0.93280  -1.79284
  H  -1.41482  -0.64702  -2.17034
  H  -2.47821  -0.52857  -0.82834
  H  -0.38002   1.20079   1.46966
  H  -1.95668   0.56021   1.14846
  H  -1.57605   1.92922   0.28816
  H   1.25504   1.30635  -0.66784
  H  -0.00787   1.95490  -1.61184
  H   0.74694   0.49313  -2.20754
  N  -0.55009   0.28408  -0.45184
  O   1.53714  -0.19240   1.64596
  C  -0.24065   6.23989   1.03526
  C  -0.72574   7.70499   0.68686
  C  -1.87377   5.18639   2.55086
  C   0.00391   6.57199   3.39376
  C   0.28654   4.34729   2.50266
  H  -0.62470   5.57439   0.26206
  H   0.82164   6.14629   0.80976
  H  -2.53257   7.41129   0.75006
  H  -0.62360   7.84189  -0.38974
  H  -0.15481   8.45669   1.23186
  H  -2.57890   6.01719   2.57566
  H  -2.07778   4.51599   1.71586
  H  -1.92426   4.57659   3.45296
  H   1.05694   6.84769   3.33626
  H  -0.17537   6.25599   4.42136
  H  -0.58637   7.48709   3.34486
  H  -0.09599   3.51349   1.91406
  H   1.31484   4.59849   2.24246
  H   0.20584   4.09839   3.56076
  N  -0.51380   5.63419   2.33426
  O  -1.96530   8.01729   1.20166
  H   3.48244  -1.88039  -2.68614
  H   4.36114   1.30983  -2.49694
  O   2.78014  -1.45134  -3.14024
  O   3.50924   0.91273  -2.50494
  O   2.07264   0.52498  -4.55304
  O   4.55114  -0.21673  -4.61134
  P   3.25134  -0.09299  -3.70194
  H  -7.81809  -0.05198   0.25896
  H  -5.08360   0.75143  -1.73834
  O  -7.06998  -0.52974   0.56826
  O  -5.54160   0.76890  -0.91764
  O  -4.72404  -1.26659   0.34116
  O  -6.24560  -1.42197  -1.70494
  P  -5.87106  -0.61364  -0.44094
  H   2.88444   2.69918   2.73526
  H   2.39934   1.56952   2.13406
  O   2.76304   2.40229   1.83336
  H   0.21064  -3.13109   2.84976
  H   1.21994  -2.80487   3.64956
  O   0.46954  -2.32586   3.29786
  H  -2.73956  -3.30532  -0.78194
  H  -3.51327  -2.45246  -0.01594
  O  -2.80571  -3.07668   0.14516
  H   2.19344   3.29587   0.45146
  H   2.57004   4.32309  -0.33614
  O   1.83924   3.70489  -0.33814
  H  -2.69608  -2.49162   1.67016
  H  -2.68467  -3.07253   2.85906
  O  -2.63883  -2.16214   2.56706
  H  -0.82214   0.33489  -5.44034
  H   0.42464   0.14066  -4.79584
  O  -0.50159  -0.00952  -4.60684
  H  -0.64386  -1.53119   4.34286
  H  -1.95827  -1.33487   3.80516
  O  -1.45368  -1.07768   4.57686
  H   1.10354   2.01781  -4.10104
  H   0.82564   3.17332  -4.80764
  O   0.71304   2.86988  -3.90674
  H  -1.09679  -4.34635  -2.00984
  H  -0.68423  -5.15957  -0.86194
  O  -0.30362  -4.71019  -1.61654
