  83
# Step 4126, RM=C5H14NO[115] (21 atoms), C5H14NO[157] d=567.978pm (21 atoms), H2O4P[291] d=555.001pm (7 atoms), H2O4P[250] d=600.756pm (7 atoms), H2O[262] d=384.450pm (3 atoms), H2O[54] d=397.828pm (3 atoms), H2O[934] d=416.231pm (3 atoms), H2O[890] d=436.015pm (3 atoms), H2O[1450] d=447.325pm (3 atoms), H2O[889] d=456.774pm (3 atoms), H2O[1458] d=497.323pm (3 atoms), H2O[1147] d=501.011pm (3 atoms), H2O[1613] d=508.164pm (3 atoms)
  C   0.34855  -0.95696   0.35062
  C  -1.04755  -1.15326   1.01692
  C  -0.25585   0.93524  -1.18848
  C   0.79845   1.35234   0.84682
  C   1.92565   0.39904  -1.02538
  H   1.18115  -1.26646   0.98232
  H   0.31615  -1.71576  -0.43118
  H  -2.87805  -1.45986   0.58272
  H  -1.22815  -0.48016   1.85502
  H  -1.14565  -2.17206   1.39182
  H   0.12805   1.79714  -1.73418
  H  -1.18005   1.34064  -0.77678
  H  -0.62505   0.17884  -1.88108
  H  -0.16795   1.49064   1.33172
  H   1.04755   2.31374   0.39762
  H   1.52365   1.11524   1.62522
  H   2.73375   0.14234  -0.34038
  H   1.94445  -0.31656  -1.84738
  H   2.25395   1.35734  -1.42788
  N   0.68585   0.41054  -0.24048
  O  -2.17455  -0.93856   0.22732
  C  -4.58005   0.50024  -1.94498
  C  -5.13815  -0.91616  -1.83728
  C  -6.50535   1.99024  -1.75428
  C  -5.41125   1.20514   0.17872
  C  -4.42195   2.84284  -1.21178
  H  -3.50675   0.52594  -1.75658
  H  -4.64705   0.81564  -2.98618
  H  -6.63905  -1.96646  -2.09808
  H  -5.13835  -1.23256  -0.79418
  H  -4.52985  -1.63976  -2.37998
  H  -7.37265   1.33064  -1.72348
  H  -6.94115   2.88924  -1.31838
  H  -6.38615   2.12904  -2.82878
  H  -4.50105   0.70044   0.50272
  H  -5.66705   2.03174   0.84162
  H  -6.21135   0.46914   0.25742
  H  -4.71895   3.56924  -0.45528
  H  -4.39855   3.27264  -2.21318
  H  -3.38175   2.66224  -0.94068
  N  -5.24935   1.60274  -1.20058
  O  -6.55245  -1.02566  -2.11968
  H   0.74455  -6.81176   2.53062
  H   0.36075  -3.97806   2.60262
  O   0.47245  -6.84216   1.63132
  O   1.05525  -4.42976   2.15852
  O   1.58845  -5.39336  -0.15338
  O  -0.86355  -5.03496   0.47762
  P   0.55305  -5.41026   1.01582
  H   1.56835  -1.44466  -4.18368
  H   2.94405  -0.72306  -7.30978
  O   1.06825  -0.77166  -4.60858
  O   2.12075  -0.96726  -6.92738
  O   0.87515   1.24764  -6.17418
  O   3.11095   0.56334  -5.22028
  P   1.76905  -0.00816  -5.73278
  H   0.41445   0.82654   4.40402
  H   0.56135   0.05284   3.43722
  O  -0.22845   0.45204   3.80182
  H   2.66685  -1.48626   2.51312
  H   2.79595  -0.50926   3.62932
  O   2.13705  -1.02236   3.16152
  H   2.23695  -3.82886  -0.51218
  H   2.68895  -2.98996  -1.53868
  O   2.76515  -3.03396  -0.58558
  H  -1.56015   4.08344   1.20252
  H  -0.86895   4.10134  -0.05938
  O  -0.67525   4.23114   0.86902
  H   3.32115  -2.22886   0.62882
  H   4.45935  -1.53356   0.68782
  O   3.85285  -1.87816   1.34332
  H  -0.34355   4.54084  -1.78418
  H  -1.48075   4.30004  -2.53988
  O  -1.14635   4.02904  -1.68488
  H  -3.10825   2.75384   2.37462
  H  -3.63685   3.94104   2.25362
  O  -2.81335   3.55924   1.94972
  H  -3.90315  -1.45846   2.74402
  H  -2.84715  -1.81756   3.60012
  O  -3.44755  -1.07936   3.49562
  H  -3.70155  -4.51356  -0.35018
  H  -2.42945  -4.36616   0.30332
  O  -3.23625  -3.86626   0.17972
